LAMMPS (31 Aug 2021)
# Example of the 2-contacts example from J. Chem. Phys. 143, 054109 (2015)
# Here with 2-elements hetero electrodes
units          real
atom_style     full
boundary       p p s

# Write param.qeq file
print """1 1.0000 20.0000 1.0000 0.000 0.000
2 2.0000 20.0000 1.0000 0.000 0.000""" file param.qeq
1 1.0000 20.0000 1.0000 0.000 0.000
2 2.0000 20.0000 1.0000 0.000 0.000

# Define the lattice
lattice        custom 3.0 a1 1.0 0.0 0.0 a2 0.0 1.0 0.0 a3 0.0 0.0 1.0                basis 0.0 0.0 0.0 basis 0.5 0.5 0.5
Lattice spacing in x,y,z = 3.0000000 3.0000000 3.0000000
region         boxl block 0 5 0 5 0 40 units lattice
region         boxr block 0 5 0 5 45 85 units lattice
region         box block 0 5 0 5 0 85 units lattice
create_box     2 box
Created orthogonal box = (0.0000000 0.0000000 0.0000000) to (15.000000 15.000000 255.00000)
  1 by 1 by 1 MPI processor grid
create_atoms   1 region boxl basis 1 1 basis 2 2
Created 2025 atoms
  using lattice units in orthogonal box = (0.0000000 0.0000000 -0.025500000) to (15.000000 15.000000 255.02550)
  create_atoms CPU = 0.002 seconds
create_atoms   2 region boxr basis 1 1 basis 2 2
Created 2025 atoms
  using lattice units in orthogonal box = (0.0000000 0.0000000 -0.025500000) to (15.000000 15.000000 255.02550)
  create_atoms CPU = 0.001 seconds

# No need pair style
pair_style     zero 1.0
pair_coeff     * *

# Groups
group          A type 1
2050 atoms in group A
group          B type 2
2000 atoms in group B
group          AB type 1 2
4050 atoms in group AB
mass           1 1.0000
mass           2 2.0000

timestep       0.5
thermo_style   custom etotal pe ke temp evdwl press pxx pyy pzz pxy pxz pyz lx ly lz
thermo_modify  line multi flush yes
thermo         1

variable       ti equal 1.0

# Variables
variable       z1min equal bound(AB,zmin)
variable       z1max equal ${z1min}+4.0
variable       z1max equal 0+4.0
variable       z2max equal bound(AB,zmax)
variable       z2min equal ${z2max}-4.0
variable       z2min equal 255-4.0

# Initialize the property
fix            0 all property/atom d_locpot d_lap
compute        0 all property/atom d_locpot d_lap

# Boundary conditions regions
region         bound1 block INF INF INF INF ${z1min} ${z1max} units box
region         bound1 block INF INF INF INF 0 ${z1max} units box
region         bound1 block INF INF INF INF 0 4 units box
group          z_left region bound1
75 atoms in group z_left
region         bound2 block INF INF INF INF ${z2min} ${z2max} units box
region         bound2 block INF INF INF INF 251 ${z2max} units box
region         bound2 block INF INF INF INF 251 255 units box
group          z_right region bound2
75 atoms in group z_right

dump           1 all custom 20 traj.dump id type x y z q c_0[1] c_0[2]

# Initialize local electrochemical potential
set            type 1 d_locpot 0.0
Setting atom values ...
  2050 settings made for d_locpot
set            type 2 d_locpot 0.0
Setting atom values ...
  2000 settings made for d_locpot

fix            1 all qeq/shielded 1 10.0 1.0e-6 1000 param.qeq
fix            2 all echemdid 1 k 6.0 rc 4.0 norm 0.629967 nelec 10 z_left z_right volt 8.0
fix            3 all ave/time 1 2 4 f_2[1] f_2[2] file js.profile # this gives the current
run            2000

CITE-CITE-CITE-CITE-CITE-CITE-CITE-CITE-CITE-CITE-CITE-CITE-CITE

Your simulation uses code contributions which should be cited:

- fix echemdid command:

@article{onofrio2015atomic,
 title={Atomic origin of ultrafast resistance switching in nanoscale electrometallization cells},
 author={Onofrio, Nicolas and Guzman, David and Strachan, Alejandro},
 journal={Nature materials},
 volume={14},
 number={4},
 pages={440},
 year={2015},
 publisher={Nature Publishing Group}
}

@article{onofrio2015voltage,
 title={Voltage equilibration for reactive atomistic simulations of electrochemical processes},
 author={Onofrio, Nicolas and Strachan, Alejandro},
 journal={The Journal of chemical physics},
 volume={143},
 number={5},
 pages={054109},
 year={2015},
 publisher={AIP Publishing}
}

CITE-CITE-CITE-CITE-CITE-CITE-CITE-CITE-CITE-CITE-CITE-CITE-CITE

Neighbor list info ...
  update every 1 steps, delay 10 steps, check yes
  max neighbors/atom: 2000, page size: 100000
  master list distance cutoff = 3
  ghost atom cutoff = 3
  binsize = 1.5, bins = 10 10 171
  3 neighbor lists, perpetual/occasional/extra = 3 0 0
  (1) fix echemdid, perpetual
      attributes: full, newton on
      pair build: full/bin
      stencil: full/bin/3d
      bin: standard
  (2) pair zero, perpetual, half/full from (1)
      attributes: half, newton on
      pair build: halffull/newton
      stencil: none
      bin: none
  (3) fix qeq/shielded, perpetual, copy from (1)
      attributes: full, newton on
      pair build: copy
      stencil: none
      bin: none
Per MPI rank memory allocation (min/avg/max) = 12.96 | 12.96 | 12.96 Mbytes
---------------- Step        0 ----- CPU =      0.0000 (sec) ----------------
TotEng   =         0.0000 PotEng   =         0.0000 KinEng   =         0.0000 
Temp     =         0.0000 E_vdwl   =         0.0000 Press    =         0.0000 
Pxx      =         0.0000 Pyy      =         0.0000 Pzz      =         0.0000 
Pxy      =         0.0000 Pxz      =         0.0000 Pyz      =         0.0000 
Lx       =        15.0000 Ly       =        15.0000 Lz       =       255.0510 
---------------- Step        1 ----- CPU =      0.0990 (sec) ----------------
TotEng   =         0.0000 PotEng   =         0.0000 KinEng   =         0.0000 
Temp     =         0.0000 E_vdwl   =         0.0000 Press    =         0.0000 
Pxx      =         0.0000 Pyy      =         0.0000 Pzz      =         0.0000 
Pxy      =         0.0000 Pxz      =         0.0000 Pyz      =         0.0000 
Lx       =        15.0000 Ly       =        15.0000 Lz       =       255.0510 
---------------- Step        2 ----- CPU =      0.2062 (sec) ----------------
TotEng   =         0.0000 PotEng   =         0.0000 KinEng   =         0.0000 
Temp     =         0.0000 E_vdwl   =         0.0000 Press    =         0.0000 
Pxx      =         0.0000 Pyy      =         0.0000 Pzz      =         0.0000 
Pxy      =         0.0000 Pxz      =         0.0000 Pyz      =         0.0000 
Lx       =        15.0000 Ly       =        15.0000 Lz       =       255.0510 
---------------- Step        3 ----- CPU =      0.3030 (sec) ----------------
TotEng   =         0.0000 PotEng   =         0.0000 KinEng   =         0.0000 
Temp     =         0.0000 E_vdwl   =         0.0000 Press    =         0.0000 
Pxx      =         0.0000 Pyy      =         0.0000 Pzz      =         0.0000 
Pxy      =         0.0000 Pxz      =         0.0000 Pyz      =         0.0000 
Lx       =        15.0000 Ly       =        15.0000 Lz       =       255.0510 
---------------- Step        4 ----- CPU =      0.3817 (sec) ----------------
TotEng   =         0.0000 PotEng   =         0.0000 KinEng   =         0.0000 
Temp     =         0.0000 E_vdwl   =         0.0000 Press    =         0.0000 
Pxx      =         0.0000 Pyy      =         0.0000 Pzz      =         0.0000 
Pxy      =         0.0000 Pxz      =         0.0000 Pyz      =         0.0000 
Lx       =        15.0000 Ly       =        15.0000 Lz       =       255.0510 
---------------- Step        5 ----- CPU =      0.4676 (sec) ----------------
TotEng   =         0.0000 PotEng   =         0.0000 KinEng   =         0.0000 
Temp     =         0.0000 E_vdwl   =         0.0000 Press    =         0.0000 
Pxx      =         0.0000 Pyy      =         0.0000 Pzz      =         0.0000 
Pxy      =         0.0000 Pxz      =         0.0000 Pyz      =         0.0000 
Lx       =        15.0000 Ly       =        15.0000 Lz       =       255.0510 
---------------- Step        6 ----- CPU =      0.5362 (sec) ----------------
TotEng   =         0.0000 PotEng   =         0.0000 KinEng   =         0.0000 
Temp     =         0.0000 E_vdwl   =         0.0000 Press    =         0.0000 
Pxx      =         0.0000 Pyy      =         0.0000 Pzz      =         0.0000 
Pxy      =         0.0000 Pxz      =         0.0000 Pyz      =         0.0000 
Lx       =        15.0000 Ly       =        15.0000 Lz       =       255.0510 
---------------- Step        7 ----- CPU =      0.6046 (sec) ----------------
TotEng   =         0.0000 PotEng   =         0.0000 KinEng   =         0.0000 
Temp     =         0.0000 E_vdwl   =         0.0000 Press    =         0.0000 
Pxx      =         0.0000 Pyy      =         0.0000 Pzz      =         0.0000 
Pxy      =         0.0000 Pxz      =         0.0000 Pyz      =         0.0000 
Lx       =        15.0000 Ly       =        15.0000 Lz       =       255.0510 
---------------- Step        8 ----- CPU =      0.6874 (sec) ----------------
TotEng   =         0.0000 PotEng   =         0.0000 KinEng   =         0.0000 
Temp     =         0.0000 E_vdwl   =         0.0000 Press    =         0.0000 
Pxx      =         0.0000 Pyy      =         0.0000 Pzz      =         0.0000 
Pxy      =         0.0000 Pxz      =         0.0000 Pyz      =         0.0000 
Lx       =        15.0000 Ly       =        15.0000 Lz       =       255.0510 
---------------- Step        9 ----- CPU =      0.7601 (sec) ----------------
TotEng   =         0.0000 PotEng   =         0.0000 KinEng   =         0.0000 
Temp     =         0.0000 E_vdwl   =         0.0000 Press    =         0.0000 
Pxx      =         0.0000 Pyy      =         0.0000 Pzz      =         0.0000 
Pxy      =         0.0000 Pxz      =         0.0000 Pyz      =         0.0000 
Lx       =        15.0000 Ly       =        15.0000 Lz       =       255.0510 
---------------- Step       10 ----- CPU =      0.8539 (sec) ----------------
TotEng   =         0.0000 PotEng   =         0.0000 KinEng   =         0.0000 
Temp     =         0.0000 E_vdwl   =         0.0000 Press    =         0.0000 
Pxx      =         0.0000 Pyy      =         0.0000 Pzz      =         0.0000 
Pxy      =         0.0000 Pxz      =         0.0000 Pyz      =         0.0000 
Lx       =        15.0000 Ly       =        15.0000 Lz       =       255.0510 
---------------- Step       11 ----- CPU =      0.9304 (sec) ----------------
TotEng   =         0.0000 PotEng   =         0.0000 KinEng   =         0.0000 
Temp     =         0.0000 E_vdwl   =         0.0000 Press    =         0.0000 
Pxx      =         0.0000 Pyy      =         0.0000 Pzz      =         0.0000 
Pxy      =         0.0000 Pxz      =         0.0000 Pyz      =         0.0000 
Lx       =        15.0000 Ly       =        15.0000 Lz       =       255.0510 
---------------- Step       12 ----- CPU =      1.0180 (sec) ----------------
TotEng   =         0.0000 PotEng   =         0.0000 KinEng   =         0.0000 
Temp     =         0.0000 E_vdwl   =         0.0000 Press    =         0.0000 
Pxx      =         0.0000 Pyy      =         0.0000 Pzz      =         0.0000 
Pxy      =         0.0000 Pxz      =         0.0000 Pyz      =         0.0000 
Lx       =        15.0000 Ly       =        15.0000 Lz       =       255.0510 
---------------- Step       13 ----- CPU =      1.0847 (sec) ----------------
TotEng   =         0.0000 PotEng   =         0.0000 KinEng   =         0.0000 
Temp     =         0.0000 E_vdwl   =         0.0000 Press    =         0.0000 
Pxx      =         0.0000 Pyy      =         0.0000 Pzz      =         0.0000 
Pxy      =         0.0000 Pxz      =         0.0000 Pyz      =         0.0000 
Lx       =        15.0000 Ly       =        15.0000 Lz       =       255.0510 
---------------- Step       14 ----- CPU =      1.1750 (sec) ----------------
TotEng   =         0.0000 PotEng   =         0.0000 KinEng   =         0.0000 
Temp     =         0.0000 E_vdwl   =         0.0000 Press    =         0.0000 
Pxx      =         0.0000 Pyy      =         0.0000 Pzz      =         0.0000 
Pxy      =         0.0000 Pxz      =         0.0000 Pyz      =         0.0000 
Lx       =        15.0000 Ly       =        15.0000 Lz       =       255.0510 
---------------- Step       15 ----- CPU =      1.2884 (sec) ----------------
TotEng   =         0.0000 PotEng   =         0.0000 KinEng   =         0.0000 
Temp     =         0.0000 E_vdwl   =         0.0000 Press    =         0.0000 
Pxx      =         0.0000 Pyy      =         0.0000 Pzz      =         0.0000 
Pxy      =         0.0000 Pxz      =         0.0000 Pyz      =         0.0000 
Lx       =        15.0000 Ly       =        15.0000 Lz       =       255.0510 
---------------- Step       16 ----- CPU =      1.4592 (sec) ----------------
TotEng   =         0.0000 PotEng   =         0.0000 KinEng   =         0.0000 
Temp     =         0.0000 E_vdwl   =         0.0000 Press    =         0.0000 
Pxx      =         0.0000 Pyy      =         0.0000 Pzz      =         0.0000 
Pxy      =         0.0000 Pxz      =         0.0000 Pyz      =         0.0000 
Lx       =        15.0000 Ly       =        15.0000 Lz       =       255.0510 
---------------- Step       17 ----- CPU =      1.6559 (sec) ----------------
TotEng   =         0.0000 PotEng   =         0.0000 KinEng   =         0.0000 
Temp     =         0.0000 E_vdwl   =         0.0000 Press    =         0.0000 
Pxx      =         0.0000 Pyy      =         0.0000 Pzz      =         0.0000 
Pxy      =         0.0000 Pxz      =         0.0000 Pyz      =         0.0000 
Lx       =        15.0000 Ly       =        15.0000 Lz       =       255.0510 
---------------- Step       18 ----- CPU =      1.7623 (sec) ----------------
TotEng   =         0.0000 PotEng   =         0.0000 KinEng   =         0.0000 
Temp     =         0.0000 E_vdwl   =         0.0000 Press    =         0.0000 
Pxx      =         0.0000 Pyy      =         0.0000 Pzz      =         0.0000 
Pxy      =         0.0000 Pxz      =         0.0000 Pyz      =         0.0000 
Lx       =        15.0000 Ly       =        15.0000 Lz       =       255.0510 
---------------- Step       19 ----- CPU =      1.8422 (sec) ----------------
TotEng   =         0.0000 PotEng   =         0.0000 KinEng   =         0.0000 
Temp     =         0.0000 E_vdwl   =         0.0000 Press    =         0.0000 
Pxx      =         0.0000 Pyy      =         0.0000 Pzz      =         0.0000 
Pxy      =         0.0000 Pxz      =         0.0000 Pyz      =         0.0000 
Lx       =        15.0000 Ly       =        15.0000 Lz       =       255.0510 
---------------- Step       20 ----- CPU =      1.9151 (sec) ----------------
TotEng   =         0.0000 PotEng   =         0.0000 KinEng   =         0.0000 
Temp     =         0.0000 E_vdwl   =         0.0000 Press    =         0.0000 
Pxx      =         0.0000 Pyy      =         0.0000 Pzz      =         0.0000 
Pxy      =         0.0000 Pxz      =         0.0000 Pyz      =         0.0000 
Lx       =        15.0000 Ly       =        15.0000 Lz       =       255.0510 
---------------- Step       21 ----- CPU =      2.0105 (sec) ----------------
TotEng   =         0.0000 PotEng   =         0.0000 KinEng   =         0.0000 
Temp     =         0.0000 E_vdwl   =         0.0000 Press    =         0.0000 
Pxx      =         0.0000 Pyy      =         0.0000 Pzz      =         0.0000 
Pxy      =         0.0000 Pxz      =         0.0000 Pyz      =         0.0000 
Lx       =        15.0000 Ly       =        15.0000 Lz       =       255.0510 
---------------- Step       22 ----- CPU =      2.1142 (sec) ----------------
TotEng   =         0.0000 PotEng   =         0.0000 KinEng   =         0.0000 
Temp     =         0.0000 E_vdwl   =         0.0000 Press    =         0.0000 
Pxx      =         0.0000 Pyy      =         0.0000 Pzz      =         0.0000 
Pxy      =         0.0000 Pxz      =         0.0000 Pyz      =         0.0000 
Lx       =        15.0000 Ly       =        15.0000 Lz       =       255.0510 
---------------- Step       23 ----- CPU =      2.1874 (sec) ----------------
TotEng   =         0.0000 PotEng   =         0.0000 KinEng   =         0.0000 
Temp     =         0.0000 E_vdwl   =         0.0000 Press    =         0.0000 
Pxx      =         0.0000 Pyy      =         0.0000 Pzz      =         0.0000 
Pxy      =         0.0000 Pxz      =         0.0000 Pyz      =         0.0000 
Lx       =        15.0000 Ly       =        15.0000 Lz       =       255.0510 
---------------- Step       24 ----- CPU =      2.2524 (sec) ----------------
TotEng   =         0.0000 PotEng   =         0.0000 KinEng   =         0.0000 
Temp     =         0.0000 E_vdwl   =         0.0000 Press    =         0.0000 
Pxx      =         0.0000 Pyy      =         0.0000 Pzz      =         0.0000 
Pxy      =         0.0000 Pxz      =         0.0000 Pyz      =         0.0000 
Lx       =        15.0000 Ly       =        15.0000 Lz       =       255.0510 
---------------- Step       25 ----- CPU =      2.3439 (sec) ----------------
TotEng   =         0.0000 PotEng   =         0.0000 KinEng   =         0.0000 
Temp     =         0.0000 E_vdwl   =         0.0000 Press    =         0.0000 
Pxx      =         0.0000 Pyy      =         0.0000 Pzz      =         0.0000 
Pxy      =         0.0000 Pxz      =         0.0000 Pyz      =         0.0000 
Lx       =        15.0000 Ly       =        15.0000 Lz       =       255.0510 
---------------- Step       26 ----- CPU =      2.4109 (sec) ----------------
TotEng   =         0.0000 PotEng   =         0.0000 KinEng   =         0.0000 
Temp     =         0.0000 E_vdwl   =         0.0000 Press    =         0.0000 
Pxx      =         0.0000 Pyy      =         0.0000 Pzz      =         0.0000 
Pxy      =         0.0000 Pxz      =         0.0000 Pyz      =         0.0000 
Lx       =        15.0000 Ly       =        15.0000 Lz       =       255.0510 
---------------- Step       27 ----- CPU =      2.4998 (sec) ----------------
TotEng   =         0.0000 PotEng   =         0.0000 KinEng   =         0.0000 
Temp     =         0.0000 E_vdwl   =         0.0000 Press    =         0.0000 
Pxx      =         0.0000 Pyy      =         0.0000 Pzz      =         0.0000 
Pxy      =         0.0000 Pxz      =         0.0000 Pyz      =         0.0000 
Lx       =        15.0000 Ly       =        15.0000 Lz       =       255.0510 
---------------- Step       28 ----- CPU =      2.6188 (sec) ----------------
TotEng   =         0.0000 PotEng   =         0.0000 KinEng   =         0.0000 
Temp     =         0.0000 E_vdwl   =         0.0000 Press    =         0.0000 
Pxx      =         0.0000 Pyy      =         0.0000 Pzz      =         0.0000 
Pxy      =         0.0000 Pxz      =         0.0000 Pyz      =         0.0000 
Lx       =        15.0000 Ly       =        15.0000 Lz       =       255.0510 
---------------- Step       29 ----- CPU =      2.7185 (sec) ----------------
TotEng   =         0.0000 PotEng   =         0.0000 KinEng   =         0.0000 
Temp     =         0.0000 E_vdwl   =         0.0000 Press    =         0.0000 
Pxx      =         0.0000 Pyy      =         0.0000 Pzz      =         0.0000 
Pxy      =         0.0000 Pxz      =         0.0000 Pyz      =         0.0000 
Lx       =        15.0000 Ly       =        15.0000 Lz       =       255.0510 
---------------- Step       30 ----- CPU =      2.7931 (sec) ----------------
TotEng   =         0.0000 PotEng   =         0.0000 KinEng   =         0.0000 
Temp     =         0.0000 E_vdwl   =         0.0000 Press    =         0.0000 
Pxx      =         0.0000 Pyy      =         0.0000 Pzz      =         0.0000 
Pxy      =         0.0000 Pxz      =         0.0000 Pyz      =         0.0000 
Lx       =        15.0000 Ly       =        15.0000 Lz       =       255.0510 
---------------- Step       31 ----- CPU =      2.9035 (sec) ----------------
TotEng   =         0.0000 PotEng   =         0.0000 KinEng   =         0.0000 
Temp     =         0.0000 E_vdwl   =         0.0000 Press    =         0.0000 
Pxx      =         0.0000 Pyy      =         0.0000 Pzz      =         0.0000 
Pxy      =         0.0000 Pxz      =         0.0000 Pyz      =         0.0000 
Lx       =        15.0000 Ly       =        15.0000 Lz       =       255.0510 
---------------- Step       32 ----- CPU =      2.9987 (sec) ----------------
TotEng   =         0.0000 PotEng   =         0.0000 KinEng   =         0.0000 
Temp     =         0.0000 E_vdwl   =         0.0000 Press    =         0.0000 
Pxx      =         0.0000 Pyy      =         0.0000 Pzz      =         0.0000 
Pxy      =         0.0000 Pxz      =         0.0000 Pyz      =         0.0000 
Lx       =        15.0000 Ly       =        15.0000 Lz       =       255.0510 
---------------- Step       33 ----- CPU =      3.0939 (sec) ----------------
TotEng   =         0.0000 PotEng   =         0.0000 KinEng   =         0.0000 
Temp     =         0.0000 E_vdwl   =         0.0000 Press    =         0.0000 
Pxx      =         0.0000 Pyy      =         0.0000 Pzz      =         0.0000 
Pxy      =         0.0000 Pxz      =         0.0000 Pyz      =         0.0000 
Lx       =        15.0000 Ly       =        15.0000 Lz       =       255.0510 
---------------- Step       34 ----- CPU =      3.1704 (sec) ----------------
TotEng   =         0.0000 PotEng   =         0.0000 KinEng   =         0.0000 
Temp     =         0.0000 E_vdwl   =         0.0000 Press    =         0.0000 
Pxx      =         0.0000 Pyy      =         0.0000 Pzz      =         0.0000 
Pxy      =         0.0000 Pxz      =         0.0000 Pyz      =         0.0000 
Lx       =        15.0000 Ly       =        15.0000 Lz       =       255.0510 
---------------- Step       35 ----- CPU =      3.2790 (sec) ----------------
TotEng   =         0.0000 PotEng   =         0.0000 KinEng   =         0.0000 
Temp     =         0.0000 E_vdwl   =         0.0000 Press    =         0.0000 
Pxx      =         0.0000 Pyy      =         0.0000 Pzz      =         0.0000 
Pxy      =         0.0000 Pxz      =         0.0000 Pyz      =         0.0000 
Lx       =        15.0000 Ly       =        15.0000 Lz       =       255.0510 
---------------- Step       36 ----- CPU =      3.3758 (sec) ----------------
TotEng   =         0.0000 PotEng   =         0.0000 KinEng   =         0.0000 
Temp     =         0.0000 E_vdwl   =         0.0000 Press    =         0.0000 
Pxx      =         0.0000 Pyy      =         0.0000 Pzz      =         0.0000 
Pxy      =         0.0000 Pxz      =         0.0000 Pyz      =         0.0000 
Lx       =        15.0000 Ly       =        15.0000 Lz       =       255.0510 
---------------- Step       37 ----- CPU =      3.5282 (sec) ----------------
TotEng   =         0.0000 PotEng   =         0.0000 KinEng   =         0.0000 
Temp     =         0.0000 E_vdwl   =         0.0000 Press    =         0.0000 
Pxx      =         0.0000 Pyy      =         0.0000 Pzz      =         0.0000 
Pxy      =         0.0000 Pxz      =         0.0000 Pyz      =         0.0000 
Lx       =        15.0000 Ly       =        15.0000 Lz       =       255.0510 
---------------- Step       38 ----- CPU =      3.6180 (sec) ----------------
TotEng   =         0.0000 PotEng   =         0.0000 KinEng   =         0.0000 
Temp     =         0.0000 E_vdwl   =         0.0000 Press    =         0.0000 
Pxx      =         0.0000 Pyy      =         0.0000 Pzz      =         0.0000 
Pxy      =         0.0000 Pxz      =         0.0000 Pyz      =         0.0000 
Lx       =        15.0000 Ly       =        15.0000 Lz       =       255.0510 
---------------- Step       39 ----- CPU =      3.6896 (sec) ----------------
TotEng   =         0.0000 PotEng   =         0.0000 KinEng   =         0.0000 
Temp     =         0.0000 E_vdwl   =         0.0000 Press    =         0.0000 
Pxx      =         0.0000 Pyy      =         0.0000 Pzz      =         0.0000 
Pxy      =         0.0000 Pxz      =         0.0000 Pyz      =         0.0000 
Lx       =        15.0000 Ly       =        15.0000 Lz       =       255.0510 
---------------- Step       40 ----- CPU =      3.7845 (sec) ----------------
TotEng   =         0.0000 PotEng   =         0.0000 KinEng   =         0.0000 
Temp     =         0.0000 E_vdwl   =         0.0000 Press    =         0.0000 
Pxx      =         0.0000 Pyy      =         0.0000 Pzz      =         0.0000 
Pxy      =         0.0000 Pxz      =         0.0000 Pyz      =         0.0000 
Lx       =        15.0000 Ly       =        15.0000 Lz       =       255.0510 
---------------- Step       41 ----- CPU =      3.8948 (sec) ----------------
TotEng   =         0.0000 PotEng   =         0.0000 KinEng   =         0.0000 
Temp     =         0.0000 E_vdwl   =         0.0000 Press    =         0.0000 
Pxx      =         0.0000 Pyy      =         0.0000 Pzz      =         0.0000 
Pxy      =         0.0000 Pxz      =         0.0000 Pyz      =         0.0000 
Lx       =        15.0000 Ly       =        15.0000 Lz       =       255.0510 
---------------- Step       42 ----- CPU =      3.9909 (sec) ----------------
TotEng   =         0.0000 PotEng   =         0.0000 KinEng   =         0.0000 
Temp     =         0.0000 E_vdwl   =         0.0000 Press    =         0.0000 
Pxx      =         0.0000 Pyy      =         0.0000 Pzz      =         0.0000 
Pxy      =         0.0000 Pxz      =         0.0000 Pyz      =         0.0000 
Lx       =        15.0000 Ly       =        15.0000 Lz       =       255.0510 
---------------- Step       43 ----- CPU =      4.0900 (sec) ----------------
TotEng   =         0.0000 PotEng   =         0.0000 KinEng   =         0.0000 
Temp     =         0.0000 E_vdwl   =         0.0000 Press    =         0.0000 
Pxx      =         0.0000 Pyy      =         0.0000 Pzz      =         0.0000 
Pxy      =         0.0000 Pxz      =         0.0000 Pyz      =         0.0000 
Lx       =        15.0000 Ly       =        15.0000 Lz       =       255.0510 
---------------- Step       44 ----- CPU =      4.1670 (sec) ----------------
TotEng   =         0.0000 PotEng   =         0.0000 KinEng   =         0.0000 
Temp     =         0.0000 E_vdwl   =         0.0000 Press    =         0.0000 
Pxx      =         0.0000 Pyy      =         0.0000 Pzz      =         0.0000 
Pxy      =         0.0000 Pxz      =         0.0000 Pyz      =         0.0000 
Lx       =        15.0000 Ly       =        15.0000 Lz       =       255.0510 
---------------- Step       45 ----- CPU =      4.2386 (sec) ----------------
TotEng   =         0.0000 PotEng   =         0.0000 KinEng   =         0.0000 
Temp     =         0.0000 E_vdwl   =         0.0000 Press    =         0.0000 
Pxx      =         0.0000 Pyy      =         0.0000 Pzz      =         0.0000 
Pxy      =         0.0000 Pxz      =         0.0000 Pyz      =         0.0000 
Lx       =        15.0000 Ly       =        15.0000 Lz       =       255.0510 
---------------- Step       46 ----- CPU =      4.3328 (sec) ----------------
TotEng   =         0.0000 PotEng   =         0.0000 KinEng   =         0.0000 
Temp     =         0.0000 E_vdwl   =         0.0000 Press    =         0.0000 
Pxx      =         0.0000 Pyy      =         0.0000 Pzz      =         0.0000 
Pxy      =         0.0000 Pxz      =         0.0000 Pyz      =         0.0000 
Lx       =        15.0000 Ly       =        15.0000 Lz       =       255.0510 
---------------- Step       47 ----- CPU =      4.4379 (sec) ----------------
TotEng   =         0.0000 PotEng   =         0.0000 KinEng   =         0.0000 
Temp     =         0.0000 E_vdwl   =         0.0000 Press    =         0.0000 
Pxx      =         0.0000 Pyy      =         0.0000 Pzz      =         0.0000 
Pxy      =         0.0000 Pxz      =         0.0000 Pyz      =         0.0000 
Lx       =        15.0000 Ly       =        15.0000 Lz       =       255.0510 
---------------- Step       48 ----- CPU =      4.5489 (sec) ----------------
TotEng   =         0.0000 PotEng   =         0.0000 KinEng   =         0.0000 
Temp     =         0.0000 E_vdwl   =         0.0000 Press    =         0.0000 
Pxx      =         0.0000 Pyy      =         0.0000 Pzz      =         0.0000 
Pxy      =         0.0000 Pxz      =         0.0000 Pyz      =         0.0000 
Lx       =        15.0000 Ly       =        15.0000 Lz       =       255.0510 
---------------- Step       49 ----- CPU =      4.6217 (sec) ----------------
TotEng   =         0.0000 PotEng   =         0.0000 KinEng   =         0.0000 
Temp     =         0.0000 E_vdwl   =         0.0000 Press    =         0.0000 
Pxx      =         0.0000 Pyy      =         0.0000 Pzz      =         0.0000 
Pxy      =         0.0000 Pxz      =         0.0000 Pyz      =         0.0000 
Lx       =        15.0000 Ly       =        15.0000 Lz       =       255.0510 
---------------- Step       50 ----- CPU =      4.7230 (sec) ----------------
TotEng   =         0.0000 PotEng   =         0.0000 KinEng   =         0.0000 
Temp     =         0.0000 E_vdwl   =         0.0000 Press    =         0.0000 
Pxx      =         0.0000 Pyy      =         0.0000 Pzz      =         0.0000 
Pxy      =         0.0000 Pxz      =         0.0000 Pyz      =         0.0000 
Lx       =        15.0000 Ly       =        15.0000 Lz       =       255.0510 
---------------- Step       51 ----- CPU =      4.8337 (sec) ----------------
TotEng   =         0.0000 PotEng   =         0.0000 KinEng   =         0.0000 
Temp     =         0.0000 E_vdwl   =         0.0000 Press    =         0.0000 
Pxx      =         0.0000 Pyy      =         0.0000 Pzz      =         0.0000 
Pxy      =         0.0000 Pxz      =         0.0000 Pyz      =         0.0000 
Lx       =        15.0000 Ly       =        15.0000 Lz       =       255.0510 
---------------- Step       52 ----- CPU =      4.9371 (sec) ----------------
TotEng   =         0.0000 PotEng   =         0.0000 KinEng   =         0.0000 
Temp     =         0.0000 E_vdwl   =         0.0000 Press    =         0.0000 
Pxx      =         0.0000 Pyy      =         0.0000 Pzz      =         0.0000 
Pxy      =         0.0000 Pxz      =         0.0000 Pyz      =         0.0000 
Lx       =        15.0000 Ly       =        15.0000 Lz       =       255.0510 
---------------- Step       53 ----- CPU =      5.0105 (sec) ----------------
TotEng   =         0.0000 PotEng   =         0.0000 KinEng   =         0.0000 
Temp     =         0.0000 E_vdwl   =         0.0000 Press    =         0.0000 
Pxx      =         0.0000 Pyy      =         0.0000 Pzz      =         0.0000 
Pxy      =         0.0000 Pxz      =         0.0000 Pyz      =         0.0000 
Lx       =        15.0000 Ly       =        15.0000 Lz       =       255.0510 
---------------- Step       54 ----- CPU =      5.0865 (sec) ----------------
TotEng   =         0.0000 PotEng   =         0.0000 KinEng   =         0.0000 
Temp     =         0.0000 E_vdwl   =         0.0000 Press    =         0.0000 
Pxx      =         0.0000 Pyy      =         0.0000 Pzz      =         0.0000 
Pxy      =         0.0000 Pxz      =         0.0000 Pyz      =         0.0000 
Lx       =        15.0000 Ly       =        15.0000 Lz       =       255.0510 
---------------- Step       55 ----- CPU =      5.1791 (sec) ----------------
TotEng   =         0.0000 PotEng   =         0.0000 KinEng   =         0.0000 
Temp     =         0.0000 E_vdwl   =         0.0000 Press    =         0.0000 
Pxx      =         0.0000 Pyy      =         0.0000 Pzz      =         0.0000 
Pxy      =         0.0000 Pxz      =         0.0000 Pyz      =         0.0000 
Lx       =        15.0000 Ly       =        15.0000 Lz       =       255.0510 
---------------- Step       56 ----- CPU =      5.2704 (sec) ----------------
TotEng   =         0.0000 PotEng   =         0.0000 KinEng   =         0.0000 
Temp     =         0.0000 E_vdwl   =         0.0000 Press    =         0.0000 
Pxx      =         0.0000 Pyy      =         0.0000 Pzz      =         0.0000 
Pxy      =         0.0000 Pxz      =         0.0000 Pyz      =         0.0000 
Lx       =        15.0000 Ly       =        15.0000 Lz       =       255.0510 
---------------- Step       57 ----- CPU =      5.3712 (sec) ----------------
TotEng   =         0.0000 PotEng   =         0.0000 KinEng   =         0.0000 
Temp     =         0.0000 E_vdwl   =         0.0000 Press    =         0.0000 
Pxx      =         0.0000 Pyy      =         0.0000 Pzz      =         0.0000 
Pxy      =         0.0000 Pxz      =         0.0000 Pyz      =         0.0000 
Lx       =        15.0000 Ly       =        15.0000 Lz       =       255.0510 
---------------- Step       58 ----- CPU =      5.5567 (sec) ----------------
TotEng   =         0.0000 PotEng   =         0.0000 KinEng   =         0.0000 
Temp     =         0.0000 E_vdwl   =         0.0000 Press    =         0.0000 
Pxx      =         0.0000 Pyy      =         0.0000 Pzz      =         0.0000 
Pxy      =         0.0000 Pxz      =         0.0000 Pyz      =         0.0000 
Lx       =        15.0000 Ly       =        15.0000 Lz       =       255.0510 
---------------- Step       59 ----- CPU =      5.6654 (sec) ----------------
TotEng   =         0.0000 PotEng   =         0.0000 KinEng   =         0.0000 
Temp     =         0.0000 E_vdwl   =         0.0000 Press    =         0.0000 
Pxx      =         0.0000 Pyy      =         0.0000 Pzz      =         0.0000 
Pxy      =         0.0000 Pxz      =         0.0000 Pyz      =         0.0000 
Lx       =        15.0000 Ly       =        15.0000 Lz       =       255.0510 
---------------- Step       60 ----- CPU =      5.7862 (sec) ----------------
TotEng   =         0.0000 PotEng   =         0.0000 KinEng   =         0.0000 
Temp     =         0.0000 E_vdwl   =         0.0000 Press    =         0.0000 
Pxx      =         0.0000 Pyy      =         0.0000 Pzz      =         0.0000 
Pxy      =         0.0000 Pxz      =         0.0000 Pyz      =         0.0000 
Lx       =        15.0000 Ly       =        15.0000 Lz       =       255.0510 
---------------- Step       61 ----- CPU =      5.8876 (sec) ----------------
TotEng   =         0.0000 PotEng   =         0.0000 KinEng   =         0.0000 
Temp     =         0.0000 E_vdwl   =         0.0000 Press    =         0.0000 
Pxx      =         0.0000 Pyy      =         0.0000 Pzz      =         0.0000 
Pxy      =         0.0000 Pxz      =         0.0000 Pyz      =         0.0000 
Lx       =        15.0000 Ly       =        15.0000 Lz       =       255.0510 
---------------- Step       62 ----- CPU =      5.9847 (sec) ----------------
TotEng   =         0.0000 PotEng   =         0.0000 KinEng   =         0.0000 
Temp     =         0.0000 E_vdwl   =         0.0000 Press    =         0.0000 
Pxx      =         0.0000 Pyy      =         0.0000 Pzz      =         0.0000 
Pxy      =         0.0000 Pxz      =         0.0000 Pyz      =         0.0000 
Lx       =        15.0000 Ly       =        15.0000 Lz       =       255.0510 
---------------- Step       63 ----- CPU =      6.0723 (sec) ----------------
TotEng   =         0.0000 PotEng   =         0.0000 KinEng   =         0.0000 
Temp     =         0.0000 E_vdwl   =         0.0000 Press    =         0.0000 
Pxx      =         0.0000 Pyy      =         0.0000 Pzz      =         0.0000 
Pxy      =         0.0000 Pxz      =         0.0000 Pyz      =         0.0000 
Lx       =        15.0000 Ly       =        15.0000 Lz       =       255.0510 
---------------- Step       64 ----- CPU =      6.1895 (sec) ----------------
TotEng   =         0.0000 PotEng   =         0.0000 KinEng   =         0.0000 
Temp     =         0.0000 E_vdwl   =         0.0000 Press    =         0.0000 
Pxx      =         0.0000 Pyy      =         0.0000 Pzz      =         0.0000 
Pxy      =         0.0000 Pxz      =         0.0000 Pyz      =         0.0000 
Lx       =        15.0000 Ly       =        15.0000 Lz       =       255.0510 
---------------- Step       65 ----- CPU =      6.3019 (sec) ----------------
TotEng   =         0.0000 PotEng   =         0.0000 KinEng   =         0.0000 
Temp     =         0.0000 E_vdwl   =         0.0000 Press    =         0.0000 
Pxx      =         0.0000 Pyy      =         0.0000 Pzz      =         0.0000 
Pxy      =         0.0000 Pxz      =         0.0000 Pyz      =         0.0000 
Lx       =        15.0000 Ly       =        15.0000 Lz       =       255.0510 
---------------- Step       66 ----- CPU =      6.4151 (sec) ----------------
TotEng   =         0.0000 PotEng   =         0.0000 KinEng   =         0.0000 
Temp     =         0.0000 E_vdwl   =         0.0000 Press    =         0.0000 
Pxx      =         0.0000 Pyy      =         0.0000 Pzz      =         0.0000 
Pxy      =         0.0000 Pxz      =         0.0000 Pyz      =         0.0000 
Lx       =        15.0000 Ly       =        15.0000 Lz       =       255.0510 
---------------- Step       67 ----- CPU =      6.5112 (sec) ----------------
TotEng   =         0.0000 PotEng   =         0.0000 KinEng   =         0.0000 
Temp     =         0.0000 E_vdwl   =         0.0000 Press    =         0.0000 
Pxx      =         0.0000 Pyy      =         0.0000 Pzz      =         0.0000 
Pxy      =         0.0000 Pxz      =         0.0000 Pyz      =         0.0000 
Lx       =        15.0000 Ly       =        15.0000 Lz       =       255.0510 
---------------- Step       68 ----- CPU =      6.6144 (sec) ----------------
TotEng   =         0.0000 PotEng   =         0.0000 KinEng   =         0.0000 
Temp     =         0.0000 E_vdwl   =         0.0000 Press    =         0.0000 
Pxx      =         0.0000 Pyy      =         0.0000 Pzz      =         0.0000 
Pxy      =         0.0000 Pxz      =         0.0000 Pyz      =         0.0000 
Lx       =        15.0000 Ly       =        15.0000 Lz       =       255.0510 
---------------- Step       69 ----- CPU =      6.7222 (sec) ----------------
TotEng   =         0.0000 PotEng   =         0.0000 KinEng   =         0.0000 
Temp     =         0.0000 E_vdwl   =         0.0000 Press    =         0.0000 
Pxx      =         0.0000 Pyy      =         0.0000 Pzz      =         0.0000 
Pxy      =         0.0000 Pxz      =         0.0000 Pyz      =         0.0000 
Lx       =        15.0000 Ly       =        15.0000 Lz       =       255.0510 
---------------- Step       70 ----- CPU =      6.8222 (sec) ----------------
TotEng   =         0.0000 PotEng   =         0.0000 KinEng   =         0.0000 
Temp     =         0.0000 E_vdwl   =         0.0000 Press    =         0.0000 
Pxx      =         0.0000 Pyy      =         0.0000 Pzz      =         0.0000 
Pxy      =         0.0000 Pxz      =         0.0000 Pyz      =         0.0000 
Lx       =        15.0000 Ly       =        15.0000 Lz       =       255.0510 
---------------- Step       71 ----- CPU =      6.9092 (sec) ----------------
TotEng   =         0.0000 PotEng   =         0.0000 KinEng   =         0.0000 
Temp     =         0.0000 E_vdwl   =         0.0000 Press    =         0.0000 
Pxx      =         0.0000 Pyy      =         0.0000 Pzz      =         0.0000 
Pxy      =         0.0000 Pxz      =         0.0000 Pyz      =         0.0000 
Lx       =        15.0000 Ly       =        15.0000 Lz       =       255.0510 
---------------- Step       72 ----- CPU =      7.0123 (sec) ----------------
TotEng   =         0.0000 PotEng   =         0.0000 KinEng   =         0.0000 
Temp     =         0.0000 E_vdwl   =         0.0000 Press    =         0.0000 
Pxx      =         0.0000 Pyy      =         0.0000 Pzz      =         0.0000 
Pxy      =         0.0000 Pxz      =         0.0000 Pyz      =         0.0000 
Lx       =        15.0000 Ly       =        15.0000 Lz       =       255.0510 
---------------- Step       73 ----- CPU =      7.2129 (sec) ----------------
TotEng   =         0.0000 PotEng   =         0.0000 KinEng   =         0.0000 
Temp     =         0.0000 E_vdwl   =         0.0000 Press    =         0.0000 
Pxx      =         0.0000 Pyy      =         0.0000 Pzz      =         0.0000 
Pxy      =         0.0000 Pxz      =         0.0000 Pyz      =         0.0000 
Lx       =        15.0000 Ly       =        15.0000 Lz       =       255.0510 
---------------- Step       74 ----- CPU =      7.3949 (sec) ----------------
TotEng   =         0.0000 PotEng   =         0.0000 KinEng   =         0.0000 
Temp     =         0.0000 E_vdwl   =         0.0000 Press    =         0.0000 
Pxx      =         0.0000 Pyy      =         0.0000 Pzz      =         0.0000 
Pxy      =         0.0000 Pxz      =         0.0000 Pyz      =         0.0000 
Lx       =        15.0000 Ly       =        15.0000 Lz       =       255.0510 
---------------- Step       75 ----- CPU =      7.4573 (sec) ----------------
TotEng   =         0.0000 PotEng   =         0.0000 KinEng   =         0.0000 
Temp     =         0.0000 E_vdwl   =         0.0000 Press    =         0.0000 
Pxx      =         0.0000 Pyy      =         0.0000 Pzz      =         0.0000 
Pxy      =         0.0000 Pxz      =         0.0000 Pyz      =         0.0000 
Lx       =        15.0000 Ly       =        15.0000 Lz       =       255.0510 
---------------- Step       76 ----- CPU =      7.5196 (sec) ----------------
TotEng   =         0.0000 PotEng   =         0.0000 KinEng   =         0.0000 
Temp     =         0.0000 E_vdwl   =         0.0000 Press    =         0.0000 
Pxx      =         0.0000 Pyy      =         0.0000 Pzz      =         0.0000 
Pxy      =         0.0000 Pxz      =         0.0000 Pyz      =         0.0000 
Lx       =        15.0000 Ly       =        15.0000 Lz       =       255.0510 
---------------- Step       77 ----- CPU =      7.6503 (sec) ----------------
TotEng   =         0.0000 PotEng   =         0.0000 KinEng   =         0.0000 
Temp     =         0.0000 E_vdwl   =         0.0000 Press    =         0.0000 
Pxx      =         0.0000 Pyy      =         0.0000 Pzz      =         0.0000 
Pxy      =         0.0000 Pxz      =         0.0000 Pyz      =         0.0000 
Lx       =        15.0000 Ly       =        15.0000 Lz       =       255.0510 
---------------- Step       78 ----- CPU =      7.8628 (sec) ----------------
TotEng   =         0.0000 PotEng   =         0.0000 KinEng   =         0.0000 
Temp     =         0.0000 E_vdwl   =         0.0000 Press    =         0.0000 
Pxx      =         0.0000 Pyy      =         0.0000 Pzz      =         0.0000 
Pxy      =         0.0000 Pxz      =         0.0000 Pyz      =         0.0000 
Lx       =        15.0000 Ly       =        15.0000 Lz       =       255.0510 
---------------- Step       79 ----- CPU =      8.0499 (sec) ----------------
TotEng   =         0.0000 PotEng   =         0.0000 KinEng   =         0.0000 
Temp     =         0.0000 E_vdwl   =         0.0000 Press    =         0.0000 
Pxx      =         0.0000 Pyy      =         0.0000 Pzz      =         0.0000 
Pxy      =         0.0000 Pxz      =         0.0000 Pyz      =         0.0000 
Lx       =        15.0000 Ly       =        15.0000 Lz       =       255.0510 
---------------- Step       80 ----- CPU =      8.1700 (sec) ----------------
TotEng   =         0.0000 PotEng   =         0.0000 KinEng   =         0.0000 
Temp     =         0.0000 E_vdwl   =         0.0000 Press    =         0.0000 
Pxx      =         0.0000 Pyy      =         0.0000 Pzz      =         0.0000 
Pxy      =         0.0000 Pxz      =         0.0000 Pyz      =         0.0000 
Lx       =        15.0000 Ly       =        15.0000 Lz       =       255.0510 
---------------- Step       81 ----- CPU =      8.2574 (sec) ----------------
TotEng   =         0.0000 PotEng   =         0.0000 KinEng   =         0.0000 
Temp     =         0.0000 E_vdwl   =         0.0000 Press    =         0.0000 
Pxx      =         0.0000 Pyy      =         0.0000 Pzz      =         0.0000 
Pxy      =         0.0000 Pxz      =         0.0000 Pyz      =         0.0000 
Lx       =        15.0000 Ly       =        15.0000 Lz       =       255.0510 
---------------- Step       82 ----- CPU =      8.3357 (sec) ----------------
TotEng   =         0.0000 PotEng   =         0.0000 KinEng   =         0.0000 
Temp     =         0.0000 E_vdwl   =         0.0000 Press    =         0.0000 
Pxx      =         0.0000 Pyy      =         0.0000 Pzz      =         0.0000 
Pxy      =         0.0000 Pxz      =         0.0000 Pyz      =         0.0000 
Lx       =        15.0000 Ly       =        15.0000 Lz       =       255.0510 
---------------- Step       83 ----- CPU =      8.4389 (sec) ----------------
TotEng   =         0.0000 PotEng   =         0.0000 KinEng   =         0.0000 
Temp     =         0.0000 E_vdwl   =         0.0000 Press    =         0.0000 
Pxx      =         0.0000 Pyy      =         0.0000 Pzz      =         0.0000 
Pxy      =         0.0000 Pxz      =         0.0000 Pyz      =         0.0000 
Lx       =        15.0000 Ly       =        15.0000 Lz       =       255.0510 
---------------- Step       84 ----- CPU =      8.5516 (sec) ----------------
TotEng   =         0.0000 PotEng   =         0.0000 KinEng   =         0.0000 
Temp     =         0.0000 E_vdwl   =         0.0000 Press    =         0.0000 
Pxx      =         0.0000 Pyy      =         0.0000 Pzz      =         0.0000 
Pxy      =         0.0000 Pxz      =         0.0000 Pyz      =         0.0000 
Lx       =        15.0000 Ly       =        15.0000 Lz       =       255.0510 
---------------- Step       85 ----- CPU =      8.6313 (sec) ----------------
TotEng   =         0.0000 PotEng   =         0.0000 KinEng   =         0.0000 
Temp     =         0.0000 E_vdwl   =         0.0000 Press    =         0.0000 
Pxx      =         0.0000 Pyy      =         0.0000 Pzz      =         0.0000 
Pxy      =         0.0000 Pxz      =         0.0000 Pyz      =         0.0000 
Lx       =        15.0000 Ly       =        15.0000 Lz       =       255.0510 
---------------- Step       86 ----- CPU =      8.7525 (sec) ----------------
TotEng   =         0.0000 PotEng   =         0.0000 KinEng   =         0.0000 
Temp     =         0.0000 E_vdwl   =         0.0000 Press    =         0.0000 
Pxx      =         0.0000 Pyy      =         0.0000 Pzz      =         0.0000 
Pxy      =         0.0000 Pxz      =         0.0000 Pyz      =         0.0000 
Lx       =        15.0000 Ly       =        15.0000 Lz       =       255.0510 
---------------- Step       87 ----- CPU =      8.8478 (sec) ----------------
TotEng   =         0.0000 PotEng   =         0.0000 KinEng   =         0.0000 
Temp     =         0.0000 E_vdwl   =         0.0000 Press    =         0.0000 
Pxx      =         0.0000 Pyy      =         0.0000 Pzz      =         0.0000 
Pxy      =         0.0000 Pxz      =         0.0000 Pyz      =         0.0000 
Lx       =        15.0000 Ly       =        15.0000 Lz       =       255.0510 
---------------- Step       88 ----- CPU =      8.9530 (sec) ----------------
TotEng   =         0.0000 PotEng   =         0.0000 KinEng   =         0.0000 
Temp     =         0.0000 E_vdwl   =         0.0000 Press    =         0.0000 
Pxx      =         0.0000 Pyy      =         0.0000 Pzz      =         0.0000 
Pxy      =         0.0000 Pxz      =         0.0000 Pyz      =         0.0000 
Lx       =        15.0000 Ly       =        15.0000 Lz       =       255.0510 
---------------- Step       89 ----- CPU =      9.0604 (sec) ----------------
TotEng   =         0.0000 PotEng   =         0.0000 KinEng   =         0.0000 
Temp     =         0.0000 E_vdwl   =         0.0000 Press    =         0.0000 
Pxx      =         0.0000 Pyy      =         0.0000 Pzz      =         0.0000 
Pxy      =         0.0000 Pxz      =         0.0000 Pyz      =         0.0000 
Lx       =        15.0000 Ly       =        15.0000 Lz       =       255.0510 
---------------- Step       90 ----- CPU =      9.1516 (sec) ----------------
TotEng   =         0.0000 PotEng   =         0.0000 KinEng   =         0.0000 
Temp     =         0.0000 E_vdwl   =         0.0000 Press    =         0.0000 
Pxx      =         0.0000 Pyy      =         0.0000 Pzz      =         0.0000 
Pxy      =         0.0000 Pxz      =         0.0000 Pyz      =         0.0000 
Lx       =        15.0000 Ly       =        15.0000 Lz       =       255.0510 
---------------- Step       91 ----- CPU =      9.2254 (sec) ----------------
TotEng   =         0.0000 PotEng   =         0.0000 KinEng   =         0.0000 
Temp     =         0.0000 E_vdwl   =         0.0000 Press    =         0.0000 
Pxx      =         0.0000 Pyy      =         0.0000 Pzz      =         0.0000 
Pxy      =         0.0000 Pxz      =         0.0000 Pyz      =         0.0000 
Lx       =        15.0000 Ly       =        15.0000 Lz       =       255.0510 
---------------- Step       92 ----- CPU =      9.3130 (sec) ----------------
TotEng   =         0.0000 PotEng   =         0.0000 KinEng   =         0.0000 
Temp     =         0.0000 E_vdwl   =         0.0000 Press    =         0.0000 
Pxx      =         0.0000 Pyy      =         0.0000 Pzz      =         0.0000 
Pxy      =         0.0000 Pxz      =         0.0000 Pyz      =         0.0000 
Lx       =        15.0000 Ly       =        15.0000 Lz       =       255.0510 
---------------- Step       93 ----- CPU =      9.4882 (sec) ----------------
TotEng   =         0.0000 PotEng   =         0.0000 KinEng   =         0.0000 
Temp     =         0.0000 E_vdwl   =         0.0000 Press    =         0.0000 
Pxx      =         0.0000 Pyy      =         0.0000 Pzz      =         0.0000 
Pxy      =         0.0000 Pxz      =         0.0000 Pyz      =         0.0000 
Lx       =        15.0000 Ly       =        15.0000 Lz       =       255.0510 
---------------- Step       94 ----- CPU =      9.6857 (sec) ----------------
TotEng   =         0.0000 PotEng   =         0.0000 KinEng   =         0.0000 
Temp     =         0.0000 E_vdwl   =         0.0000 Press    =         0.0000 
Pxx      =         0.0000 Pyy      =         0.0000 Pzz      =         0.0000 
Pxy      =         0.0000 Pxz      =         0.0000 Pyz      =         0.0000 
Lx       =        15.0000 Ly       =        15.0000 Lz       =       255.0510 
---------------- Step       95 ----- CPU =      9.8804 (sec) ----------------
TotEng   =         0.0000 PotEng   =         0.0000 KinEng   =         0.0000 
Temp     =         0.0000 E_vdwl   =         0.0000 Press    =         0.0000 
Pxx      =         0.0000 Pyy      =         0.0000 Pzz      =         0.0000 
Pxy      =         0.0000 Pxz      =         0.0000 Pyz      =         0.0000 
Lx       =        15.0000 Ly       =        15.0000 Lz       =       255.0510 
---------------- Step       96 ----- CPU =     10.0013 (sec) ----------------
TotEng   =         0.0000 PotEng   =         0.0000 KinEng   =         0.0000 
Temp     =         0.0000 E_vdwl   =         0.0000 Press    =         0.0000 
Pxx      =         0.0000 Pyy      =         0.0000 Pzz      =         0.0000 
Pxy      =         0.0000 Pxz      =         0.0000 Pyz      =         0.0000 
Lx       =        15.0000 Ly       =        15.0000 Lz       =       255.0510 
---------------- Step       97 ----- CPU =     10.1033 (sec) ----------------
TotEng   =         0.0000 PotEng   =         0.0000 KinEng   =         0.0000 
Temp     =         0.0000 E_vdwl   =         0.0000 Press    =         0.0000 
Pxx      =         0.0000 Pyy      =         0.0000 Pzz      =         0.0000 
Pxy      =         0.0000 Pxz      =         0.0000 Pyz      =         0.0000 
Lx       =        15.0000 Ly       =        15.0000 Lz       =       255.0510 
---------------- Step       98 ----- CPU =     10.1958 (sec) ----------------
TotEng   =         0.0000 PotEng   =         0.0000 KinEng   =         0.0000 
Temp     =         0.0000 E_vdwl   =         0.0000 Press    =         0.0000 
Pxx      =         0.0000 Pyy      =         0.0000 Pzz      =         0.0000 
Pxy      =         0.0000 Pxz      =         0.0000 Pyz      =         0.0000 
Lx       =        15.0000 Ly       =        15.0000 Lz       =       255.0510 
---------------- Step       99 ----- CPU =     10.2947 (sec) ----------------
TotEng   =         0.0000 PotEng   =         0.0000 KinEng   =         0.0000 
Temp     =         0.0000 E_vdwl   =         0.0000 Press    =         0.0000 
Pxx      =         0.0000 Pyy      =         0.0000 Pzz      =         0.0000 
Pxy      =         0.0000 Pxz      =         0.0000 Pyz      =         0.0000 
Lx       =        15.0000 Ly       =        15.0000 Lz       =       255.0510 
---------------- Step      100 ----- CPU =     10.3749 (sec) ----------------
TotEng   =         0.0000 PotEng   =         0.0000 KinEng   =         0.0000 
Temp     =         0.0000 E_vdwl   =         0.0000 Press    =         0.0000 
Pxx      =         0.0000 Pyy      =         0.0000 Pzz      =         0.0000 
Pxy      =         0.0000 Pxz      =         0.0000 Pyz      =         0.0000 
Lx       =        15.0000 Ly       =        15.0000 Lz       =       255.0510 
---------------- Step      101 ----- CPU =     10.4548 (sec) ----------------
TotEng   =         0.0000 PotEng   =         0.0000 KinEng   =         0.0000 
Temp     =         0.0000 E_vdwl   =         0.0000 Press    =         0.0000 
Pxx      =         0.0000 Pyy      =         0.0000 Pzz      =         0.0000 
Pxy      =         0.0000 Pxz      =         0.0000 Pyz      =         0.0000 
Lx       =        15.0000 Ly       =        15.0000 Lz       =       255.0510 
---------------- Step      102 ----- CPU =     10.5276 (sec) ----------------
TotEng   =         0.0000 PotEng   =         0.0000 KinEng   =         0.0000 
Temp     =         0.0000 E_vdwl   =         0.0000 Press    =         0.0000 
Pxx      =         0.0000 Pyy      =         0.0000 Pzz      =         0.0000 
Pxy      =         0.0000 Pxz      =         0.0000 Pyz      =         0.0000 
Lx       =        15.0000 Ly       =        15.0000 Lz       =       255.0510 
---------------- Step      103 ----- CPU =     10.6027 (sec) ----------------
TotEng   =         0.0000 PotEng   =         0.0000 KinEng   =         0.0000 
Temp     =         0.0000 E_vdwl   =         0.0000 Press    =         0.0000 
Pxx      =         0.0000 Pyy      =         0.0000 Pzz      =         0.0000 
Pxy      =         0.0000 Pxz      =         0.0000 Pyz      =         0.0000 
Lx       =        15.0000 Ly       =        15.0000 Lz       =       255.0510 
---------------- Step      104 ----- CPU =     10.6734 (sec) ----------------
TotEng   =         0.0000 PotEng   =         0.0000 KinEng   =         0.0000 
Temp     =         0.0000 E_vdwl   =         0.0000 Press    =         0.0000 
Pxx      =         0.0000 Pyy      =         0.0000 Pzz      =         0.0000 
Pxy      =         0.0000 Pxz      =         0.0000 Pyz      =         0.0000 
Lx       =        15.0000 Ly       =        15.0000 Lz       =       255.0510 
---------------- Step      105 ----- CPU =     10.7624 (sec) ----------------
TotEng   =         0.0000 PotEng   =         0.0000 KinEng   =         0.0000 
Temp     =         0.0000 E_vdwl   =         0.0000 Press    =         0.0000 
Pxx      =         0.0000 Pyy      =         0.0000 Pzz      =         0.0000 
Pxy      =         0.0000 Pxz      =         0.0000 Pyz      =         0.0000 
Lx       =        15.0000 Ly       =        15.0000 Lz       =       255.0510 
---------------- Step      106 ----- CPU =     10.8816 (sec) ----------------
TotEng   =         0.0000 PotEng   =         0.0000 KinEng   =         0.0000 
Temp     =         0.0000 E_vdwl   =         0.0000 Press    =         0.0000 
Pxx      =         0.0000 Pyy      =         0.0000 Pzz      =         0.0000 
Pxy      =         0.0000 Pxz      =         0.0000 Pyz      =         0.0000 
Lx       =        15.0000 Ly       =        15.0000 Lz       =       255.0510 
---------------- Step      107 ----- CPU =     10.9943 (sec) ----------------
TotEng   =         0.0000 PotEng   =         0.0000 KinEng   =         0.0000 
Temp     =         0.0000 E_vdwl   =         0.0000 Press    =         0.0000 
Pxx      =         0.0000 Pyy      =         0.0000 Pzz      =         0.0000 
Pxy      =         0.0000 Pxz      =         0.0000 Pyz      =         0.0000 
Lx       =        15.0000 Ly       =        15.0000 Lz       =       255.0510 
---------------- Step      108 ----- CPU =     11.0890 (sec) ----------------
TotEng   =         0.0000 PotEng   =         0.0000 KinEng   =         0.0000 
Temp     =         0.0000 E_vdwl   =         0.0000 Press    =         0.0000 
Pxx      =         0.0000 Pyy      =         0.0000 Pzz      =         0.0000 
Pxy      =         0.0000 Pxz      =         0.0000 Pyz      =         0.0000 
Lx       =        15.0000 Ly       =        15.0000 Lz       =       255.0510 
---------------- Step      109 ----- CPU =     11.1640 (sec) ----------------
TotEng   =         0.0000 PotEng   =         0.0000 KinEng   =         0.0000 
Temp     =         0.0000 E_vdwl   =         0.0000 Press    =         0.0000 
Pxx      =         0.0000 Pyy      =         0.0000 Pzz      =         0.0000 
Pxy      =         0.0000 Pxz      =         0.0000 Pyz      =         0.0000 
Lx       =        15.0000 Ly       =        15.0000 Lz       =       255.0510 
---------------- Step      110 ----- CPU =     11.2302 (sec) ----------------
TotEng   =         0.0000 PotEng   =         0.0000 KinEng   =         0.0000 
Temp     =         0.0000 E_vdwl   =         0.0000 Press    =         0.0000 
Pxx      =         0.0000 Pyy      =         0.0000 Pzz      =         0.0000 
Pxy      =         0.0000 Pxz      =         0.0000 Pyz      =         0.0000 
Lx       =        15.0000 Ly       =        15.0000 Lz       =       255.0510 
---------------- Step      111 ----- CPU =     11.3089 (sec) ----------------
TotEng   =         0.0000 PotEng   =         0.0000 KinEng   =         0.0000 
Temp     =         0.0000 E_vdwl   =         0.0000 Press    =         0.0000 
Pxx      =         0.0000 Pyy      =         0.0000 Pzz      =         0.0000 
Pxy      =         0.0000 Pxz      =         0.0000 Pyz      =         0.0000 
Lx       =        15.0000 Ly       =        15.0000 Lz       =       255.0510 
---------------- Step      112 ----- CPU =     11.3985 (sec) ----------------
TotEng   =         0.0000 PotEng   =         0.0000 KinEng   =         0.0000 
Temp     =         0.0000 E_vdwl   =         0.0000 Press    =         0.0000 
Pxx      =         0.0000 Pyy      =         0.0000 Pzz      =         0.0000 
Pxy      =         0.0000 Pxz      =         0.0000 Pyz      =         0.0000 
Lx       =        15.0000 Ly       =        15.0000 Lz       =       255.0510 
---------------- Step      113 ----- CPU =     11.4893 (sec) ----------------
TotEng   =         0.0000 PotEng   =         0.0000 KinEng   =         0.0000 
Temp     =         0.0000 E_vdwl   =         0.0000 Press    =         0.0000 
Pxx      =         0.0000 Pyy      =         0.0000 Pzz      =         0.0000 
Pxy      =         0.0000 Pxz      =         0.0000 Pyz      =         0.0000 
Lx       =        15.0000 Ly       =        15.0000 Lz       =       255.0510 
---------------- Step      114 ----- CPU =     11.6117 (sec) ----------------
TotEng   =         0.0000 PotEng   =         0.0000 KinEng   =         0.0000 
Temp     =         0.0000 E_vdwl   =         0.0000 Press    =         0.0000 
Pxx      =         0.0000 Pyy      =         0.0000 Pzz      =         0.0000 
Pxy      =         0.0000 Pxz      =         0.0000 Pyz      =         0.0000 
Lx       =        15.0000 Ly       =        15.0000 Lz       =       255.0510 
---------------- Step      115 ----- CPU =     11.7028 (sec) ----------------
TotEng   =         0.0000 PotEng   =         0.0000 KinEng   =         0.0000 
Temp     =         0.0000 E_vdwl   =         0.0000 Press    =         0.0000 
Pxx      =         0.0000 Pyy      =         0.0000 Pzz      =         0.0000 
Pxy      =         0.0000 Pxz      =         0.0000 Pyz      =         0.0000 
Lx       =        15.0000 Ly       =        15.0000 Lz       =       255.0510 
---------------- Step      116 ----- CPU =     11.7920 (sec) ----------------
TotEng   =         0.0000 PotEng   =         0.0000 KinEng   =         0.0000 
Temp     =         0.0000 E_vdwl   =         0.0000 Press    =         0.0000 
Pxx      =         0.0000 Pyy      =         0.0000 Pzz      =         0.0000 
Pxy      =         0.0000 Pxz      =         0.0000 Pyz      =         0.0000 
Lx       =        15.0000 Ly       =        15.0000 Lz       =       255.0510 
---------------- Step      117 ----- CPU =     11.8675 (sec) ----------------
TotEng   =         0.0000 PotEng   =         0.0000 KinEng   =         0.0000 
Temp     =         0.0000 E_vdwl   =         0.0000 Press    =         0.0000 
Pxx      =         0.0000 Pyy      =         0.0000 Pzz      =         0.0000 
Pxy      =         0.0000 Pxz      =         0.0000 Pyz      =         0.0000 
Lx       =        15.0000 Ly       =        15.0000 Lz       =       255.0510 
---------------- Step      118 ----- CPU =     11.9733 (sec) ----------------
TotEng   =         0.0000 PotEng   =         0.0000 KinEng   =         0.0000 
Temp     =         0.0000 E_vdwl   =         0.0000 Press    =         0.0000 
Pxx      =         0.0000 Pyy      =         0.0000 Pzz      =         0.0000 
Pxy      =         0.0000 Pxz      =         0.0000 Pyz      =         0.0000 
Lx       =        15.0000 Ly       =        15.0000 Lz       =       255.0510 
---------------- Step      119 ----- CPU =     12.0892 (sec) ----------------
TotEng   =         0.0000 PotEng   =         0.0000 KinEng   =         0.0000 
Temp     =         0.0000 E_vdwl   =         0.0000 Press    =         0.0000 
Pxx      =         0.0000 Pyy      =         0.0000 Pzz      =         0.0000 
Pxy      =         0.0000 Pxz      =         0.0000 Pyz      =         0.0000 
Lx       =        15.0000 Ly       =        15.0000 Lz       =       255.0510 
---------------- Step      120 ----- CPU =     12.1939 (sec) ----------------
TotEng   =         0.0000 PotEng   =         0.0000 KinEng   =         0.0000 
Temp     =         0.0000 E_vdwl   =         0.0000 Press    =         0.0000 
Pxx      =         0.0000 Pyy      =         0.0000 Pzz      =         0.0000 
Pxy      =         0.0000 Pxz      =         0.0000 Pyz      =         0.0000 
Lx       =        15.0000 Ly       =        15.0000 Lz       =       255.0510 
---------------- Step      121 ----- CPU =     12.2800 (sec) ----------------
TotEng   =         0.0000 PotEng   =         0.0000 KinEng   =         0.0000 
Temp     =         0.0000 E_vdwl   =         0.0000 Press    =         0.0000 
Pxx      =         0.0000 Pyy      =         0.0000 Pzz      =         0.0000 
Pxy      =         0.0000 Pxz      =         0.0000 Pyz      =         0.0000 
Lx       =        15.0000 Ly       =        15.0000 Lz       =       255.0510 
---------------- Step      122 ----- CPU =     12.3764 (sec) ----------------
TotEng   =         0.0000 PotEng   =         0.0000 KinEng   =         0.0000 
Temp     =         0.0000 E_vdwl   =         0.0000 Press    =         0.0000 
Pxx      =         0.0000 Pyy      =         0.0000 Pzz      =         0.0000 
Pxy      =         0.0000 Pxz      =         0.0000 Pyz      =         0.0000 
Lx       =        15.0000 Ly       =        15.0000 Lz       =       255.0510 
---------------- Step      123 ----- CPU =     12.4853 (sec) ----------------
TotEng   =         0.0000 PotEng   =         0.0000 KinEng   =         0.0000 
Temp     =         0.0000 E_vdwl   =         0.0000 Press    =         0.0000 
Pxx      =         0.0000 Pyy      =         0.0000 Pzz      =         0.0000 
Pxy      =         0.0000 Pxz      =         0.0000 Pyz      =         0.0000 
Lx       =        15.0000 Ly       =        15.0000 Lz       =       255.0510 
---------------- Step      124 ----- CPU =     12.5890 (sec) ----------------
TotEng   =         0.0000 PotEng   =         0.0000 KinEng   =         0.0000 
Temp     =         0.0000 E_vdwl   =         0.0000 Press    =         0.0000 
Pxx      =         0.0000 Pyy      =         0.0000 Pzz      =         0.0000 
Pxy      =         0.0000 Pxz      =         0.0000 Pyz      =         0.0000 
Lx       =        15.0000 Ly       =        15.0000 Lz       =       255.0510 
---------------- Step      125 ----- CPU =     12.6971 (sec) ----------------
TotEng   =         0.0000 PotEng   =         0.0000 KinEng   =         0.0000 
Temp     =         0.0000 E_vdwl   =         0.0000 Press    =         0.0000 
Pxx      =         0.0000 Pyy      =         0.0000 Pzz      =         0.0000 
Pxy      =         0.0000 Pxz      =         0.0000 Pyz      =         0.0000 
Lx       =        15.0000 Ly       =        15.0000 Lz       =       255.0510 
---------------- Step      126 ----- CPU =     12.8073 (sec) ----------------
TotEng   =         0.0000 PotEng   =         0.0000 KinEng   =         0.0000 
Temp     =         0.0000 E_vdwl   =         0.0000 Press    =         0.0000 
Pxx      =         0.0000 Pyy      =         0.0000 Pzz      =         0.0000 
Pxy      =         0.0000 Pxz      =         0.0000 Pyz      =         0.0000 
Lx       =        15.0000 Ly       =        15.0000 Lz       =       255.0510 
---------------- Step      127 ----- CPU =     12.9246 (sec) ----------------
TotEng   =         0.0000 PotEng   =         0.0000 KinEng   =         0.0000 
Temp     =         0.0000 E_vdwl   =         0.0000 Press    =         0.0000 
Pxx      =         0.0000 Pyy      =         0.0000 Pzz      =         0.0000 
Pxy      =         0.0000 Pxz      =         0.0000 Pyz      =         0.0000 
Lx       =        15.0000 Ly       =        15.0000 Lz       =       255.0510 
---------------- Step      128 ----- CPU =     13.0065 (sec) ----------------
TotEng   =         0.0000 PotEng   =         0.0000 KinEng   =         0.0000 
Temp     =         0.0000 E_vdwl   =         0.0000 Press    =         0.0000 
Pxx      =         0.0000 Pyy      =         0.0000 Pzz      =         0.0000 
Pxy      =         0.0000 Pxz      =         0.0000 Pyz      =         0.0000 
Lx       =        15.0000 Ly       =        15.0000 Lz       =       255.0510 
---------------- Step      129 ----- CPU =     13.1314 (sec) ----------------
TotEng   =         0.0000 PotEng   =         0.0000 KinEng   =         0.0000 
Temp     =         0.0000 E_vdwl   =         0.0000 Press    =         0.0000 
Pxx      =         0.0000 Pyy      =         0.0000 Pzz      =         0.0000 
Pxy      =         0.0000 Pxz      =         0.0000 Pyz      =         0.0000 
Lx       =        15.0000 Ly       =        15.0000 Lz       =       255.0510 
---------------- Step      130 ----- CPU =     13.2390 (sec) ----------------
TotEng   =         0.0000 PotEng   =         0.0000 KinEng   =         0.0000 
Temp     =         0.0000 E_vdwl   =         0.0000 Press    =         0.0000 
Pxx      =         0.0000 Pyy      =         0.0000 Pzz      =         0.0000 
Pxy      =         0.0000 Pxz      =         0.0000 Pyz      =         0.0000 
Lx       =        15.0000 Ly       =        15.0000 Lz       =       255.0510 
---------------- Step      131 ----- CPU =     13.3219 (sec) ----------------
TotEng   =         0.0000 PotEng   =         0.0000 KinEng   =         0.0000 
Temp     =         0.0000 E_vdwl   =         0.0000 Press    =         0.0000 
Pxx      =         0.0000 Pyy      =         0.0000 Pzz      =         0.0000 
Pxy      =         0.0000 Pxz      =         0.0000 Pyz      =         0.0000 
Lx       =        15.0000 Ly       =        15.0000 Lz       =       255.0510 
---------------- Step      132 ----- CPU =     13.4159 (sec) ----------------
TotEng   =         0.0000 PotEng   =         0.0000 KinEng   =         0.0000 
Temp     =         0.0000 E_vdwl   =         0.0000 Press    =         0.0000 
Pxx      =         0.0000 Pyy      =         0.0000 Pzz      =         0.0000 
Pxy      =         0.0000 Pxz      =         0.0000 Pyz      =         0.0000 
Lx       =        15.0000 Ly       =        15.0000 Lz       =       255.0510 
---------------- Step      133 ----- CPU =     13.5083 (sec) ----------------
TotEng   =         0.0000 PotEng   =         0.0000 KinEng   =         0.0000 
Temp     =         0.0000 E_vdwl   =         0.0000 Press    =         0.0000 
Pxx      =         0.0000 Pyy      =         0.0000 Pzz      =         0.0000 
Pxy      =         0.0000 Pxz      =         0.0000 Pyz      =         0.0000 
Lx       =        15.0000 Ly       =        15.0000 Lz       =       255.0510 
---------------- Step      134 ----- CPU =     13.5808 (sec) ----------------
TotEng   =         0.0000 PotEng   =         0.0000 KinEng   =         0.0000 
Temp     =         0.0000 E_vdwl   =         0.0000 Press    =         0.0000 
Pxx      =         0.0000 Pyy      =         0.0000 Pzz      =         0.0000 
Pxy      =         0.0000 Pxz      =         0.0000 Pyz      =         0.0000 
Lx       =        15.0000 Ly       =        15.0000 Lz       =       255.0510 
---------------- Step      135 ----- CPU =     13.6645 (sec) ----------------
TotEng   =         0.0000 PotEng   =         0.0000 KinEng   =         0.0000 
Temp     =         0.0000 E_vdwl   =         0.0000 Press    =         0.0000 
Pxx      =         0.0000 Pyy      =         0.0000 Pzz      =         0.0000 
Pxy      =         0.0000 Pxz      =         0.0000 Pyz      =         0.0000 
Lx       =        15.0000 Ly       =        15.0000 Lz       =       255.0510 
---------------- Step      136 ----- CPU =     13.7509 (sec) ----------------
TotEng   =         0.0000 PotEng   =         0.0000 KinEng   =         0.0000 
Temp     =         0.0000 E_vdwl   =         0.0000 Press    =         0.0000 
Pxx      =         0.0000 Pyy      =         0.0000 Pzz      =         0.0000 
Pxy      =         0.0000 Pxz      =         0.0000 Pyz      =         0.0000 
Lx       =        15.0000 Ly       =        15.0000 Lz       =       255.0510 
---------------- Step      137 ----- CPU =     13.8656 (sec) ----------------
TotEng   =         0.0000 PotEng   =         0.0000 KinEng   =         0.0000 
Temp     =         0.0000 E_vdwl   =         0.0000 Press    =         0.0000 
Pxx      =         0.0000 Pyy      =         0.0000 Pzz      =         0.0000 
Pxy      =         0.0000 Pxz      =         0.0000 Pyz      =         0.0000 
Lx       =        15.0000 Ly       =        15.0000 Lz       =       255.0510 
---------------- Step      138 ----- CPU =     13.9613 (sec) ----------------
TotEng   =         0.0000 PotEng   =         0.0000 KinEng   =         0.0000 
Temp     =         0.0000 E_vdwl   =         0.0000 Press    =         0.0000 
Pxx      =         0.0000 Pyy      =         0.0000 Pzz      =         0.0000 
Pxy      =         0.0000 Pxz      =         0.0000 Pyz      =         0.0000 
Lx       =        15.0000 Ly       =        15.0000 Lz       =       255.0510 
---------------- Step      139 ----- CPU =     14.0666 (sec) ----------------
TotEng   =         0.0000 PotEng   =         0.0000 KinEng   =         0.0000 
Temp     =         0.0000 E_vdwl   =         0.0000 Press    =         0.0000 
Pxx      =         0.0000 Pyy      =         0.0000 Pzz      =         0.0000 
Pxy      =         0.0000 Pxz      =         0.0000 Pyz      =         0.0000 
Lx       =        15.0000 Ly       =        15.0000 Lz       =       255.0510 
---------------- Step      140 ----- CPU =     14.1521 (sec) ----------------
TotEng   =         0.0000 PotEng   =         0.0000 KinEng   =         0.0000 
Temp     =         0.0000 E_vdwl   =         0.0000 Press    =         0.0000 
Pxx      =         0.0000 Pyy      =         0.0000 Pzz      =         0.0000 
Pxy      =         0.0000 Pxz      =         0.0000 Pyz      =         0.0000 
Lx       =        15.0000 Ly       =        15.0000 Lz       =       255.0510 
---------------- Step      141 ----- CPU =     14.2513 (sec) ----------------
TotEng   =         0.0000 PotEng   =         0.0000 KinEng   =         0.0000 
Temp     =         0.0000 E_vdwl   =         0.0000 Press    =         0.0000 
Pxx      =         0.0000 Pyy      =         0.0000 Pzz      =         0.0000 
Pxy      =         0.0000 Pxz      =         0.0000 Pyz      =         0.0000 
Lx       =        15.0000 Ly       =        15.0000 Lz       =       255.0510 
---------------- Step      142 ----- CPU =     14.3624 (sec) ----------------
TotEng   =         0.0000 PotEng   =         0.0000 KinEng   =         0.0000 
Temp     =         0.0000 E_vdwl   =         0.0000 Press    =         0.0000 
Pxx      =         0.0000 Pyy      =         0.0000 Pzz      =         0.0000 
Pxy      =         0.0000 Pxz      =         0.0000 Pyz      =         0.0000 
Lx       =        15.0000 Ly       =        15.0000 Lz       =       255.0510 
---------------- Step      143 ----- CPU =     14.4830 (sec) ----------------
TotEng   =         0.0000 PotEng   =         0.0000 KinEng   =         0.0000 
Temp     =         0.0000 E_vdwl   =         0.0000 Press    =         0.0000 
Pxx      =         0.0000 Pyy      =         0.0000 Pzz      =         0.0000 
Pxy      =         0.0000 Pxz      =         0.0000 Pyz      =         0.0000 
Lx       =        15.0000 Ly       =        15.0000 Lz       =       255.0510 
---------------- Step      144 ----- CPU =     14.5927 (sec) ----------------
TotEng   =         0.0000 PotEng   =         0.0000 KinEng   =         0.0000 
Temp     =         0.0000 E_vdwl   =         0.0000 Press    =         0.0000 
Pxx      =         0.0000 Pyy      =         0.0000 Pzz      =         0.0000 
Pxy      =         0.0000 Pxz      =         0.0000 Pyz      =         0.0000 
Lx       =        15.0000 Ly       =        15.0000 Lz       =       255.0510 
---------------- Step      145 ----- CPU =     14.7045 (sec) ----------------
TotEng   =         0.0000 PotEng   =         0.0000 KinEng   =         0.0000 
Temp     =         0.0000 E_vdwl   =         0.0000 Press    =         0.0000 
Pxx      =         0.0000 Pyy      =         0.0000 Pzz      =         0.0000 
Pxy      =         0.0000 Pxz      =         0.0000 Pyz      =         0.0000 
Lx       =        15.0000 Ly       =        15.0000 Lz       =       255.0510 
---------------- Step      146 ----- CPU =     14.8189 (sec) ----------------
TotEng   =         0.0000 PotEng   =         0.0000 KinEng   =         0.0000 
Temp     =         0.0000 E_vdwl   =         0.0000 Press    =         0.0000 
Pxx      =         0.0000 Pyy      =         0.0000 Pzz      =         0.0000 
Pxy      =         0.0000 Pxz      =         0.0000 Pyz      =         0.0000 
Lx       =        15.0000 Ly       =        15.0000 Lz       =       255.0510 
---------------- Step      147 ----- CPU =     14.9447 (sec) ----------------
TotEng   =         0.0000 PotEng   =         0.0000 KinEng   =         0.0000 
Temp     =         0.0000 E_vdwl   =         0.0000 Press    =         0.0000 
Pxx      =         0.0000 Pyy      =         0.0000 Pzz      =         0.0000 
Pxy      =         0.0000 Pxz      =         0.0000 Pyz      =         0.0000 
Lx       =        15.0000 Ly       =        15.0000 Lz       =       255.0510 
---------------- Step      148 ----- CPU =     15.0715 (sec) ----------------
TotEng   =         0.0000 PotEng   =         0.0000 KinEng   =         0.0000 
Temp     =         0.0000 E_vdwl   =         0.0000 Press    =         0.0000 
Pxx      =         0.0000 Pyy      =         0.0000 Pzz      =         0.0000 
Pxy      =         0.0000 Pxz      =         0.0000 Pyz      =         0.0000 
Lx       =        15.0000 Ly       =        15.0000 Lz       =       255.0510 
---------------- Step      149 ----- CPU =     15.1719 (sec) ----------------
TotEng   =         0.0000 PotEng   =         0.0000 KinEng   =         0.0000 
Temp     =         0.0000 E_vdwl   =         0.0000 Press    =         0.0000 
Pxx      =         0.0000 Pyy      =         0.0000 Pzz      =         0.0000 
Pxy      =         0.0000 Pxz      =         0.0000 Pyz      =         0.0000 
Lx       =        15.0000 Ly       =        15.0000 Lz       =       255.0510 
---------------- Step      150 ----- CPU =     15.2591 (sec) ----------------
TotEng   =         0.0000 PotEng   =         0.0000 KinEng   =         0.0000 
Temp     =         0.0000 E_vdwl   =         0.0000 Press    =         0.0000 
Pxx      =         0.0000 Pyy      =         0.0000 Pzz      =         0.0000 
Pxy      =         0.0000 Pxz      =         0.0000 Pyz      =         0.0000 
Lx       =        15.0000 Ly       =        15.0000 Lz       =       255.0510 
---------------- Step      151 ----- CPU =     15.3749 (sec) ----------------
TotEng   =         0.0000 PotEng   =         0.0000 KinEng   =         0.0000 
Temp     =         0.0000 E_vdwl   =         0.0000 Press    =         0.0000 
Pxx      =         0.0000 Pyy      =         0.0000 Pzz      =         0.0000 
Pxy      =         0.0000 Pxz      =         0.0000 Pyz      =         0.0000 
Lx       =        15.0000 Ly       =        15.0000 Lz       =       255.0510 
---------------- Step      152 ----- CPU =     15.5922 (sec) ----------------
TotEng   =         0.0000 PotEng   =         0.0000 KinEng   =         0.0000 
Temp     =         0.0000 E_vdwl   =         0.0000 Press    =         0.0000 
Pxx      =         0.0000 Pyy      =         0.0000 Pzz      =         0.0000 
Pxy      =         0.0000 Pxz      =         0.0000 Pyz      =         0.0000 
Lx       =        15.0000 Ly       =        15.0000 Lz       =       255.0510 
---------------- Step      153 ----- CPU =     15.7163 (sec) ----------------
TotEng   =         0.0000 PotEng   =         0.0000 KinEng   =         0.0000 
Temp     =         0.0000 E_vdwl   =         0.0000 Press    =         0.0000 
Pxx      =         0.0000 Pyy      =         0.0000 Pzz      =         0.0000 
Pxy      =         0.0000 Pxz      =         0.0000 Pyz      =         0.0000 
Lx       =        15.0000 Ly       =        15.0000 Lz       =       255.0510 
---------------- Step      154 ----- CPU =     15.8423 (sec) ----------------
TotEng   =         0.0000 PotEng   =         0.0000 KinEng   =         0.0000 
Temp     =         0.0000 E_vdwl   =         0.0000 Press    =         0.0000 
Pxx      =         0.0000 Pyy      =         0.0000 Pzz      =         0.0000 
Pxy      =         0.0000 Pxz      =         0.0000 Pyz      =         0.0000 
Lx       =        15.0000 Ly       =        15.0000 Lz       =       255.0510 
---------------- Step      155 ----- CPU =     15.9527 (sec) ----------------
TotEng   =         0.0000 PotEng   =         0.0000 KinEng   =         0.0000 
Temp     =         0.0000 E_vdwl   =         0.0000 Press    =         0.0000 
Pxx      =         0.0000 Pyy      =         0.0000 Pzz      =         0.0000 
Pxy      =         0.0000 Pxz      =         0.0000 Pyz      =         0.0000 
Lx       =        15.0000 Ly       =        15.0000 Lz       =       255.0510 
---------------- Step      156 ----- CPU =     16.0721 (sec) ----------------
TotEng   =         0.0000 PotEng   =         0.0000 KinEng   =         0.0000 
Temp     =         0.0000 E_vdwl   =         0.0000 Press    =         0.0000 
Pxx      =         0.0000 Pyy      =         0.0000 Pzz      =         0.0000 
Pxy      =         0.0000 Pxz      =         0.0000 Pyz      =         0.0000 
Lx       =        15.0000 Ly       =        15.0000 Lz       =       255.0510 
---------------- Step      157 ----- CPU =     16.1622 (sec) ----------------
TotEng   =         0.0000 PotEng   =         0.0000 KinEng   =         0.0000 
Temp     =         0.0000 E_vdwl   =         0.0000 Press    =         0.0000 
Pxx      =         0.0000 Pyy      =         0.0000 Pzz      =         0.0000 
Pxy      =         0.0000 Pxz      =         0.0000 Pyz      =         0.0000 
Lx       =        15.0000 Ly       =        15.0000 Lz       =       255.0510 
---------------- Step      158 ----- CPU =     16.2444 (sec) ----------------
TotEng   =         0.0000 PotEng   =         0.0000 KinEng   =         0.0000 
Temp     =         0.0000 E_vdwl   =         0.0000 Press    =         0.0000 
Pxx      =         0.0000 Pyy      =         0.0000 Pzz      =         0.0000 
[...]
Pxx      =         0.0000 Pyy      =         0.0000 Pzz      =         0.0000 
Pxy      =         0.0000 Pxz      =         0.0000 Pyz      =         0.0000 
Lx       =        15.0000 Ly       =        15.0000 Lz       =       255.0510 
---------------- Step     1962 ----- CPU =    230.3287 (sec) ----------------
TotEng   =         0.0000 PotEng   =         0.0000 KinEng   =         0.0000 
Temp     =         0.0000 E_vdwl   =         0.0000 Press    =         0.0000 
Pxx      =         0.0000 Pyy      =         0.0000 Pzz      =         0.0000 
Pxy      =         0.0000 Pxz      =         0.0000 Pyz      =         0.0000 
Lx       =        15.0000 Ly       =        15.0000 Lz       =       255.0510 
---------------- Step     1963 ----- CPU =    230.4320 (sec) ----------------
TotEng   =         0.0000 PotEng   =         0.0000 KinEng   =         0.0000 
Temp     =         0.0000 E_vdwl   =         0.0000 Press    =         0.0000 
Pxx      =         0.0000 Pyy      =         0.0000 Pzz      =         0.0000 
Pxy      =         0.0000 Pxz      =         0.0000 Pyz      =         0.0000 
Lx       =        15.0000 Ly       =        15.0000 Lz       =       255.0510 
---------------- Step     1964 ----- CPU =    230.5589 (sec) ----------------
TotEng   =         0.0000 PotEng   =         0.0000 KinEng   =         0.0000 
Temp     =         0.0000 E_vdwl   =         0.0000 Press    =         0.0000 
Pxx      =         0.0000 Pyy      =         0.0000 Pzz      =         0.0000 
Pxy      =         0.0000 Pxz      =         0.0000 Pyz      =         0.0000 
Lx       =        15.0000 Ly       =        15.0000 Lz       =       255.0510 
---------------- Step     1965 ----- CPU =    230.6429 (sec) ----------------
TotEng   =         0.0000 PotEng   =         0.0000 KinEng   =         0.0000 
Temp     =         0.0000 E_vdwl   =         0.0000 Press    =         0.0000 
Pxx      =         0.0000 Pyy      =         0.0000 Pzz      =         0.0000 
Pxy      =         0.0000 Pxz      =         0.0000 Pyz      =         0.0000 
Lx       =        15.0000 Ly       =        15.0000 Lz       =       255.0510 
---------------- Step     1966 ----- CPU =    230.7766 (sec) ----------------
TotEng   =         0.0000 PotEng   =         0.0000 KinEng   =         0.0000 
Temp     =         0.0000 E_vdwl   =         0.0000 Press    =         0.0000 
Pxx      =         0.0000 Pyy      =         0.0000 Pzz      =         0.0000 
Pxy      =         0.0000 Pxz      =         0.0000 Pyz      =         0.0000 
Lx       =        15.0000 Ly       =        15.0000 Lz       =       255.0510 
---------------- Step     1967 ----- CPU =    230.9014 (sec) ----------------
TotEng   =         0.0000 PotEng   =         0.0000 KinEng   =         0.0000 
Temp     =         0.0000 E_vdwl   =         0.0000 Press    =         0.0000 
Pxx      =         0.0000 Pyy      =         0.0000 Pzz      =         0.0000 
Pxy      =         0.0000 Pxz      =         0.0000 Pyz      =         0.0000 
Lx       =        15.0000 Ly       =        15.0000 Lz       =       255.0510 
---------------- Step     1968 ----- CPU =    231.0156 (sec) ----------------
TotEng   =         0.0000 PotEng   =         0.0000 KinEng   =         0.0000 
Temp     =         0.0000 E_vdwl   =         0.0000 Press    =         0.0000 
Pxx      =         0.0000 Pyy      =         0.0000 Pzz      =         0.0000 
Pxy      =         0.0000 Pxz      =         0.0000 Pyz      =         0.0000 
Lx       =        15.0000 Ly       =        15.0000 Lz       =       255.0510 
---------------- Step     1969 ----- CPU =    231.1047 (sec) ----------------
TotEng   =         0.0000 PotEng   =         0.0000 KinEng   =         0.0000 
Temp     =         0.0000 E_vdwl   =         0.0000 Press    =         0.0000 
Pxx      =         0.0000 Pyy      =         0.0000 Pzz      =         0.0000 
Pxy      =         0.0000 Pxz      =         0.0000 Pyz      =         0.0000 
Lx       =        15.0000 Ly       =        15.0000 Lz       =       255.0510 
---------------- Step     1970 ----- CPU =    231.2029 (sec) ----------------
TotEng   =         0.0000 PotEng   =         0.0000 KinEng   =         0.0000 
Temp     =         0.0000 E_vdwl   =         0.0000 Press    =         0.0000 
Pxx      =         0.0000 Pyy      =         0.0000 Pzz      =         0.0000 
Pxy      =         0.0000 Pxz      =         0.0000 Pyz      =         0.0000 
Lx       =        15.0000 Ly       =        15.0000 Lz       =       255.0510 
---------------- Step     1971 ----- CPU =    231.3014 (sec) ----------------
TotEng   =         0.0000 PotEng   =         0.0000 KinEng   =         0.0000 
Temp     =         0.0000 E_vdwl   =         0.0000 Press    =         0.0000 
Pxx      =         0.0000 Pyy      =         0.0000 Pzz      =         0.0000 
Pxy      =         0.0000 Pxz      =         0.0000 Pyz      =         0.0000 
Lx       =        15.0000 Ly       =        15.0000 Lz       =       255.0510 
---------------- Step     1972 ----- CPU =    231.4021 (sec) ----------------
TotEng   =         0.0000 PotEng   =         0.0000 KinEng   =         0.0000 
Temp     =         0.0000 E_vdwl   =         0.0000 Press    =         0.0000 
Pxx      =         0.0000 Pyy      =         0.0000 Pzz      =         0.0000 
Pxy      =         0.0000 Pxz      =         0.0000 Pyz      =         0.0000 
Lx       =        15.0000 Ly       =        15.0000 Lz       =       255.0510 
---------------- Step     1973 ----- CPU =    231.5053 (sec) ----------------
TotEng   =         0.0000 PotEng   =         0.0000 KinEng   =         0.0000 
Temp     =         0.0000 E_vdwl   =         0.0000 Press    =         0.0000 
Pxx      =         0.0000 Pyy      =         0.0000 Pzz      =         0.0000 
Pxy      =         0.0000 Pxz      =         0.0000 Pyz      =         0.0000 
Lx       =        15.0000 Ly       =        15.0000 Lz       =       255.0510 
---------------- Step     1974 ----- CPU =    231.6470 (sec) ----------------
TotEng   =         0.0000 PotEng   =         0.0000 KinEng   =         0.0000 
Temp     =         0.0000 E_vdwl   =         0.0000 Press    =         0.0000 
Pxx      =         0.0000 Pyy      =         0.0000 Pzz      =         0.0000 
Pxy      =         0.0000 Pxz      =         0.0000 Pyz      =         0.0000 
Lx       =        15.0000 Ly       =        15.0000 Lz       =       255.0510 
---------------- Step     1975 ----- CPU =    231.8047 (sec) ----------------
TotEng   =         0.0000 PotEng   =         0.0000 KinEng   =         0.0000 
Temp     =         0.0000 E_vdwl   =         0.0000 Press    =         0.0000 
Pxx      =         0.0000 Pyy      =         0.0000 Pzz      =         0.0000 
Pxy      =         0.0000 Pxz      =         0.0000 Pyz      =         0.0000 
Lx       =        15.0000 Ly       =        15.0000 Lz       =       255.0510 
---------------- Step     1976 ----- CPU =    231.9267 (sec) ----------------
TotEng   =         0.0000 PotEng   =         0.0000 KinEng   =         0.0000 
Temp     =         0.0000 E_vdwl   =         0.0000 Press    =         0.0000 
Pxx      =         0.0000 Pyy      =         0.0000 Pzz      =         0.0000 
Pxy      =         0.0000 Pxz      =         0.0000 Pyz      =         0.0000 
Lx       =        15.0000 Ly       =        15.0000 Lz       =       255.0510 
---------------- Step     1977 ----- CPU =    232.0373 (sec) ----------------
TotEng   =         0.0000 PotEng   =         0.0000 KinEng   =         0.0000 
Temp     =         0.0000 E_vdwl   =         0.0000 Press    =         0.0000 
Pxx      =         0.0000 Pyy      =         0.0000 Pzz      =         0.0000 
Pxy      =         0.0000 Pxz      =         0.0000 Pyz      =         0.0000 
Lx       =        15.0000 Ly       =        15.0000 Lz       =       255.0510 
---------------- Step     1978 ----- CPU =    232.1460 (sec) ----------------
TotEng   =         0.0000 PotEng   =         0.0000 KinEng   =         0.0000 
Temp     =         0.0000 E_vdwl   =         0.0000 Press    =         0.0000 
Pxx      =         0.0000 Pyy      =         0.0000 Pzz      =         0.0000 
Pxy      =         0.0000 Pxz      =         0.0000 Pyz      =         0.0000 
Lx       =        15.0000 Ly       =        15.0000 Lz       =       255.0510 
---------------- Step     1979 ----- CPU =    232.2457 (sec) ----------------
TotEng   =         0.0000 PotEng   =         0.0000 KinEng   =         0.0000 
Temp     =         0.0000 E_vdwl   =         0.0000 Press    =         0.0000 
Pxx      =         0.0000 Pyy      =         0.0000 Pzz      =         0.0000 
Pxy      =         0.0000 Pxz      =         0.0000 Pyz      =         0.0000 
Lx       =        15.0000 Ly       =        15.0000 Lz       =       255.0510 
---------------- Step     1980 ----- CPU =    232.3490 (sec) ----------------
TotEng   =         0.0000 PotEng   =         0.0000 KinEng   =         0.0000 
Temp     =         0.0000 E_vdwl   =         0.0000 Press    =         0.0000 
Pxx      =         0.0000 Pyy      =         0.0000 Pzz      =         0.0000 
Pxy      =         0.0000 Pxz      =         0.0000 Pyz      =         0.0000 
Lx       =        15.0000 Ly       =        15.0000 Lz       =       255.0510 
---------------- Step     1981 ----- CPU =    232.4332 (sec) ----------------
TotEng   =         0.0000 PotEng   =         0.0000 KinEng   =         0.0000 
Temp     =         0.0000 E_vdwl   =         0.0000 Press    =         0.0000 
Pxx      =         0.0000 Pyy      =         0.0000 Pzz      =         0.0000 
Pxy      =         0.0000 Pxz      =         0.0000 Pyz      =         0.0000 
Lx       =        15.0000 Ly       =        15.0000 Lz       =       255.0510 
---------------- Step     1982 ----- CPU =    232.5452 (sec) ----------------
TotEng   =         0.0000 PotEng   =         0.0000 KinEng   =         0.0000 
Temp     =         0.0000 E_vdwl   =         0.0000 Press    =         0.0000 
Pxx      =         0.0000 Pyy      =         0.0000 Pzz      =         0.0000 
Pxy      =         0.0000 Pxz      =         0.0000 Pyz      =         0.0000 
Lx       =        15.0000 Ly       =        15.0000 Lz       =       255.0510 
---------------- Step     1983 ----- CPU =    232.6661 (sec) ----------------
TotEng   =         0.0000 PotEng   =         0.0000 KinEng   =         0.0000 
Temp     =         0.0000 E_vdwl   =         0.0000 Press    =         0.0000 
Pxx      =         0.0000 Pyy      =         0.0000 Pzz      =         0.0000 
Pxy      =         0.0000 Pxz      =         0.0000 Pyz      =         0.0000 
Lx       =        15.0000 Ly       =        15.0000 Lz       =       255.0510 
---------------- Step     1984 ----- CPU =    232.7719 (sec) ----------------
TotEng   =         0.0000 PotEng   =         0.0000 KinEng   =         0.0000 
Temp     =         0.0000 E_vdwl   =         0.0000 Press    =         0.0000 
Pxx      =         0.0000 Pyy      =         0.0000 Pzz      =         0.0000 
Pxy      =         0.0000 Pxz      =         0.0000 Pyz      =         0.0000 
Lx       =        15.0000 Ly       =        15.0000 Lz       =       255.0510 
---------------- Step     1985 ----- CPU =    232.8790 (sec) ----------------
TotEng   =         0.0000 PotEng   =         0.0000 KinEng   =         0.0000 
Temp     =         0.0000 E_vdwl   =         0.0000 Press    =         0.0000 
Pxx      =         0.0000 Pyy      =         0.0000 Pzz      =         0.0000 
Pxy      =         0.0000 Pxz      =         0.0000 Pyz      =         0.0000 
Lx       =        15.0000 Ly       =        15.0000 Lz       =       255.0510 
---------------- Step     1986 ----- CPU =    232.9954 (sec) ----------------
TotEng   =         0.0000 PotEng   =         0.0000 KinEng   =         0.0000 
Temp     =         0.0000 E_vdwl   =         0.0000 Press    =         0.0000 
Pxx      =         0.0000 Pyy      =         0.0000 Pzz      =         0.0000 
Pxy      =         0.0000 Pxz      =         0.0000 Pyz      =         0.0000 
Lx       =        15.0000 Ly       =        15.0000 Lz       =       255.0510 
---------------- Step     1987 ----- CPU =    233.1039 (sec) ----------------
TotEng   =         0.0000 PotEng   =         0.0000 KinEng   =         0.0000 
Temp     =         0.0000 E_vdwl   =         0.0000 Press    =         0.0000 
Pxx      =         0.0000 Pyy      =         0.0000 Pzz      =         0.0000 
Pxy      =         0.0000 Pxz      =         0.0000 Pyz      =         0.0000 
Lx       =        15.0000 Ly       =        15.0000 Lz       =       255.0510 
---------------- Step     1988 ----- CPU =    233.2156 (sec) ----------------
TotEng   =         0.0000 PotEng   =         0.0000 KinEng   =         0.0000 
Temp     =         0.0000 E_vdwl   =         0.0000 Press    =         0.0000 
Pxx      =         0.0000 Pyy      =         0.0000 Pzz      =         0.0000 
Pxy      =         0.0000 Pxz      =         0.0000 Pyz      =         0.0000 
Lx       =        15.0000 Ly       =        15.0000 Lz       =       255.0510 
---------------- Step     1989 ----- CPU =    233.3193 (sec) ----------------
TotEng   =         0.0000 PotEng   =         0.0000 KinEng   =         0.0000 
Temp     =         0.0000 E_vdwl   =         0.0000 Press    =         0.0000 
Pxx      =         0.0000 Pyy      =         0.0000 Pzz      =         0.0000 
Pxy      =         0.0000 Pxz      =         0.0000 Pyz      =         0.0000 
Lx       =        15.0000 Ly       =        15.0000 Lz       =       255.0510 
---------------- Step     1990 ----- CPU =    233.4407 (sec) ----------------
TotEng   =         0.0000 PotEng   =         0.0000 KinEng   =         0.0000 
Temp     =         0.0000 E_vdwl   =         0.0000 Press    =         0.0000 
Pxx      =         0.0000 Pyy      =         0.0000 Pzz      =         0.0000 
Pxy      =         0.0000 Pxz      =         0.0000 Pyz      =         0.0000 
Lx       =        15.0000 Ly       =        15.0000 Lz       =       255.0510 
---------------- Step     1991 ----- CPU =    233.5730 (sec) ----------------
TotEng   =         0.0000 PotEng   =         0.0000 KinEng   =         0.0000 
Temp     =         0.0000 E_vdwl   =         0.0000 Press    =         0.0000 
Pxx      =         0.0000 Pyy      =         0.0000 Pzz      =         0.0000 
Pxy      =         0.0000 Pxz      =         0.0000 Pyz      =         0.0000 
Lx       =        15.0000 Ly       =        15.0000 Lz       =       255.0510 
---------------- Step     1992 ----- CPU =    233.6992 (sec) ----------------
TotEng   =         0.0000 PotEng   =         0.0000 KinEng   =         0.0000 
Temp     =         0.0000 E_vdwl   =         0.0000 Press    =         0.0000 
Pxx      =         0.0000 Pyy      =         0.0000 Pzz      =         0.0000 
Pxy      =         0.0000 Pxz      =         0.0000 Pyz      =         0.0000 
Lx       =        15.0000 Ly       =        15.0000 Lz       =       255.0510 
---------------- Step     1993 ----- CPU =    233.7984 (sec) ----------------
TotEng   =         0.0000 PotEng   =         0.0000 KinEng   =         0.0000 
Temp     =         0.0000 E_vdwl   =         0.0000 Press    =         0.0000 
Pxx      =         0.0000 Pyy      =         0.0000 Pzz      =         0.0000 
Pxy      =         0.0000 Pxz      =         0.0000 Pyz      =         0.0000 
Lx       =        15.0000 Ly       =        15.0000 Lz       =       255.0510 
---------------- Step     1994 ----- CPU =    233.8948 (sec) ----------------
TotEng   =         0.0000 PotEng   =         0.0000 KinEng   =         0.0000 
Temp     =         0.0000 E_vdwl   =         0.0000 Press    =         0.0000 
Pxx      =         0.0000 Pyy      =         0.0000 Pzz      =         0.0000 
Pxy      =         0.0000 Pxz      =         0.0000 Pyz      =         0.0000 
Lx       =        15.0000 Ly       =        15.0000 Lz       =       255.0510 
---------------- Step     1995 ----- CPU =    234.0916 (sec) ----------------
TotEng   =         0.0000 PotEng   =         0.0000 KinEng   =         0.0000 
Temp     =         0.0000 E_vdwl   =         0.0000 Press    =         0.0000 
Pxx      =         0.0000 Pyy      =         0.0000 Pzz      =         0.0000 
Pxy      =         0.0000 Pxz      =         0.0000 Pyz      =         0.0000 
Lx       =        15.0000 Ly       =        15.0000 Lz       =       255.0510 
---------------- Step     1996 ----- CPU =    234.2908 (sec) ----------------
TotEng   =         0.0000 PotEng   =         0.0000 KinEng   =         0.0000 
Temp     =         0.0000 E_vdwl   =         0.0000 Press    =         0.0000 
Pxx      =         0.0000 Pyy      =         0.0000 Pzz      =         0.0000 
Pxy      =         0.0000 Pxz      =         0.0000 Pyz      =         0.0000 
Lx       =        15.0000 Ly       =        15.0000 Lz       =       255.0510 
---------------- Step     1997 ----- CPU =    234.3844 (sec) ----------------
TotEng   =         0.0000 PotEng   =         0.0000 KinEng   =         0.0000 
Temp     =         0.0000 E_vdwl   =         0.0000 Press    =         0.0000 
Pxx      =         0.0000 Pyy      =         0.0000 Pzz      =         0.0000 
Pxy      =         0.0000 Pxz      =         0.0000 Pyz      =         0.0000 
Lx       =        15.0000 Ly       =        15.0000 Lz       =       255.0510 
---------------- Step     1998 ----- CPU =    234.4974 (sec) ----------------
TotEng   =         0.0000 PotEng   =         0.0000 KinEng   =         0.0000 
Temp     =         0.0000 E_vdwl   =         0.0000 Press    =         0.0000 
Pxx      =         0.0000 Pyy      =         0.0000 Pzz      =         0.0000 
Pxy      =         0.0000 Pxz      =         0.0000 Pyz      =         0.0000 
Lx       =        15.0000 Ly       =        15.0000 Lz       =       255.0510 
---------------- Step     1999 ----- CPU =    234.6318 (sec) ----------------
TotEng   =         0.0000 PotEng   =         0.0000 KinEng   =         0.0000 
Temp     =         0.0000 E_vdwl   =         0.0000 Press    =         0.0000 
Pxx      =         0.0000 Pyy      =         0.0000 Pzz      =         0.0000 
Pxy      =         0.0000 Pxz      =         0.0000 Pyz      =         0.0000 
Lx       =        15.0000 Ly       =        15.0000 Lz       =       255.0510 
---------------- Step     2000 ----- CPU =    234.7326 (sec) ----------------
TotEng   =         0.0000 PotEng   =         0.0000 KinEng   =         0.0000 
Temp     =         0.0000 E_vdwl   =         0.0000 Press    =         0.0000 
Pxx      =         0.0000 Pyy      =         0.0000 Pzz      =         0.0000 
Pxy      =         0.0000 Pxz      =         0.0000 Pyz      =         0.0000 
Lx       =        15.0000 Ly       =        15.0000 Lz       =       255.0510 
Loop time of 234.733 on 1 procs for 2000 steps with 4050 atoms

Performance: 0.368 ns/day, 65.204 hours/ns, 8.520 timesteps/s
93.4% CPU use with 1 MPI tasks x no OpenMP threads

MPI task timing breakdown:
Section |  min time  |  avg time  |  max time  |%varavg| %total
---------------------------------------------------------------
Pair    | 0.096422   | 0.096422   | 0.096422   |   0.0 |  0.04
Bond    | 0.00022191 | 0.00022191 | 0.00022191 |   0.0 |  0.00
Neigh   | 0          | 0          | 0          |   0.0 |  0.00
Comm    | 0.054089   | 0.054089   | 0.054089   |   0.0 |  0.02
Output  | 0.86905    | 0.86905    | 0.86905    |   0.0 |  0.37
Modify  | 233.54     | 233.54     | 233.54     |   0.0 | 99.49
Other   |            | 0.172      |            |       |  0.07

Nlocal:        4050.00 ave        4050 max        4050 min
Histogram: 1 0 0 0 0 0 0 0 0 0
Nghost:        5118.00 ave        5118 max        5118 min
Histogram: 1 0 0 0 0 0 0 0 0 0
Neighs:        28050.0 ave       28050 max       28050 min
Histogram: 1 0 0 0 0 0 0 0 0 0
FullNghs:      54480.0 ave       54480 max       54480 min
Histogram: 1 0 0 0 0 0 0 0 0 0

Total # of neighbors = 54480
Ave neighs/atom = 13.451852
Ave special neighs/atom = 0.0000000
Neighbor list builds = 0
Dangerous builds = 0
Total wall time: 0:03:54
