LAMMPS (22 Aug 2018)
# Example of the 2-contacts example from J. Chem. Phys. 143, 054109 (2015)
# Here with LiS electrodes
units          real
atom_style     full
boundary       p p s

lattice        custom 3.0 a1 1.0 0.0 0.0 a2 0.0 1.0 0.0 a3 0.0 0.0 1.0                basis 0.0 0.0 0.0 basis 0.5 0.5 0.5
Lattice spacing in x,y,z = 3 3 3
region         boxl block 0 5 0 5 0 40 units lattice
region         boxr block 0 5 0 5 45 85 units lattice
region         box block 0 5 0 5 0 85 units lattice
create_box     2 box
Created orthogonal box = (0 0 0) to (15 15 255)
  1 by 1 by 1 MPI processor grid
create_atoms   1 region boxl basis 1 1 basis 2 2
Created 2025 atoms
  Time spent = 0.00183606 secs
create_atoms   2 region boxr basis 1 1 basis 2 2
Created 2025 atoms
  Time spent = 0.000556946 secs

pair_style     zero 1.0
pair_coeff     * *

#kspace_style   pppm 1.0e-4

group          Li type 1
2050 atoms in group Li
group          S type 2
2000 atoms in group S
group          LiS type 1 2
4050 atoms in group LiS
mass           1 6.9410
mass           2 32.0600

timestep       0.5

thermo_style   custom etotal pe ke temp evdwl press pxx pyy pzz pxy pxz pyz lx ly lz
thermo_modify  line multi flush yes
thermo         1

variable       ti equal 1.0

variable       z1min equal bound(LiS,zmin)
variable       z1max equal ${z1min}+4.0
variable       z1max equal 0+4.0
variable       z2max equal bound(LiS,zmax)
variable       z2min equal ${z2max}-4.0
variable       z2min equal 255-4.0

# Initialize the property
fix            0 all property/atom d_locpot d_lap
compute        0 all property/atom d_locpot d_lap

# Boundary conditions regions
region         bound1 block INF INF INF INF ${z1min} ${z1max} units box
region         bound1 block INF INF INF INF 0 ${z1max} units box
region         bound1 block INF INF INF INF 0 4 units box
group          z_left region bound1
75 atoms in group z_left
region         bound2 block INF INF INF INF ${z2min} ${z2max} units box
region         bound2 block INF INF INF INF 251 ${z2max} units box
region         bound2 block INF INF INF INF 251 255 units box
group          z_right region bound2
75 atoms in group z_right

dump           1 all custom 20 traj.dump id type x y z q c_0[1] c_0[2]

# Initialize local electrochemical potential
set            type 1 d_locpot 0.0
  2050 settings made for d_locpot
set            type 2 d_locpot 0.0
  2000 settings made for d_locpot

#fix            1 all qeq/reax 1 0.0 10.0 1.0e-6 param.qeq
fix            1 all qeq/shielded 1 10.0 1.0e-6 1000 param.qeq
fix            2 all echemdid 1 k 6.0 rc 4.0 norm 0.629967 nelec 10 z_left z_right volt 8.0
fix            3 all ave/time 1 2 4 f_2[1] f_2[2] file js.profile # this gives the current
run            200
Neighbor list info ...
  update every 1 steps, delay 10 steps, check yes
  max neighbors/atom: 2000, page size: 100000
  master list distance cutoff = 3
  ghost atom cutoff = 3
  binsize = 1.5, bins = 10 10 171
  3 neighbor lists, perpetual/occasional/extra = 3 0 0
  (1) fix echemdid, perpetual
      attributes: full, newton on
      pair build: full/bin
      stencil: full/bin/3d
      bin: standard
  (2) pair zero, perpetual, half/full from (1)
      attributes: half, newton on
      pair build: halffull/newton
      stencil: none
      bin: none
  (3) fix qeq/shielded, perpetual, copy from (1)
      attributes: full, newton on
      pair build: copy
      stencil: none
      bin: none
Per MPI rank memory allocation (min/avg/max) = 12.96 | 12.96 | 12.96 Mbytes
---------------- Step        0 ----- CPU =      0.0000 (sec) ----------------
TotEng   =         0.0000 PotEng   =         0.0000 KinEng   =         0.0000 
Temp     =         0.0000 E_vdwl   =         0.0000 Press    =         0.0000 
Pxx      =         0.0000 Pyy      =         0.0000 Pzz      =         0.0000 
Pxy      =         0.0000 Pxz      =         0.0000 Pyz      =         0.0000 
Lx       =        15.0000 Ly       =        15.0000 Lz       =       255.0510 
---------------- Step        1 ----- CPU =      0.1398 (sec) ----------------
TotEng   =         0.0000 PotEng   =         0.0000 KinEng   =         0.0000 
Temp     =         0.0000 E_vdwl   =         0.0000 Press    =         0.0000 
Pxx      =         0.0000 Pyy      =         0.0000 Pzz      =         0.0000 
Pxy      =         0.0000 Pxz      =         0.0000 Pyz      =         0.0000 
Lx       =        15.0000 Ly       =        15.0000 Lz       =       255.0510 
---------------- Step        2 ----- CPU =      0.2750 (sec) ----------------
TotEng   =         0.0000 PotEng   =         0.0000 KinEng   =         0.0000 
Temp     =         0.0000 E_vdwl   =         0.0000 Press    =         0.0000 
Pxx      =         0.0000 Pyy      =         0.0000 Pzz      =         0.0000 
Pxy      =         0.0000 Pxz      =         0.0000 Pyz      =         0.0000 
Lx       =        15.0000 Ly       =        15.0000 Lz       =       255.0510 
---------------- Step        3 ----- CPU =      0.3775 (sec) ----------------
TotEng   =         0.0000 PotEng   =         0.0000 KinEng   =         0.0000 
Temp     =         0.0000 E_vdwl   =         0.0000 Press    =         0.0000 
Pxx      =         0.0000 Pyy      =         0.0000 Pzz      =         0.0000 
Pxy      =         0.0000 Pxz      =         0.0000 Pyz      =         0.0000 
Lx       =        15.0000 Ly       =        15.0000 Lz       =       255.0510 
---------------- Step        4 ----- CPU =      0.4566 (sec) ----------------
TotEng   =         0.0000 PotEng   =         0.0000 KinEng   =         0.0000 
Temp     =         0.0000 E_vdwl   =         0.0000 Press    =         0.0000 
Pxx      =         0.0000 Pyy      =         0.0000 Pzz      =         0.0000 
Pxy      =         0.0000 Pxz      =         0.0000 Pyz      =         0.0000 
Lx       =        15.0000 Ly       =        15.0000 Lz       =       255.0510 
---------------- Step        5 ----- CPU =      0.5369 (sec) ----------------
TotEng   =         0.0000 PotEng   =         0.0000 KinEng   =         0.0000 
Temp     =         0.0000 E_vdwl   =         0.0000 Press    =         0.0000 
Pxx      =         0.0000 Pyy      =         0.0000 Pzz      =         0.0000 
Pxy      =         0.0000 Pxz      =         0.0000 Pyz      =         0.0000 
Lx       =        15.0000 Ly       =        15.0000 Lz       =       255.0510 
---------------- Step        6 ----- CPU =      0.6068 (sec) ----------------
TotEng   =         0.0000 PotEng   =         0.0000 KinEng   =         0.0000 
Temp     =         0.0000 E_vdwl   =         0.0000 Press    =         0.0000 
Pxx      =         0.0000 Pyy      =         0.0000 Pzz      =         0.0000 
Pxy      =         0.0000 Pxz      =         0.0000 Pyz      =         0.0000 
Lx       =        15.0000 Ly       =        15.0000 Lz       =       255.0510 
---------------- Step        7 ----- CPU =      0.6685 (sec) ----------------
TotEng   =         0.0000 PotEng   =         0.0000 KinEng   =         0.0000 
Temp     =         0.0000 E_vdwl   =         0.0000 Press    =         0.0000 
Pxx      =         0.0000 Pyy      =         0.0000 Pzz      =         0.0000 
Pxy      =         0.0000 Pxz      =         0.0000 Pyz      =         0.0000 
Lx       =        15.0000 Ly       =        15.0000 Lz       =       255.0510 
---------------- Step        8 ----- CPU =      0.7483 (sec) ----------------
TotEng   =         0.0000 PotEng   =         0.0000 KinEng   =         0.0000 
Temp     =         0.0000 E_vdwl   =         0.0000 Press    =         0.0000 
Pxx      =         0.0000 Pyy      =         0.0000 Pzz      =         0.0000 
Pxy      =         0.0000 Pxz      =         0.0000 Pyz      =         0.0000 
Lx       =        15.0000 Ly       =        15.0000 Lz       =       255.0510 
---------------- Step        9 ----- CPU =      0.8315 (sec) ----------------
TotEng   =         0.0000 PotEng   =         0.0000 KinEng   =         0.0000 
Temp     =         0.0000 E_vdwl   =         0.0000 Press    =         0.0000 
Pxx      =         0.0000 Pyy      =         0.0000 Pzz      =         0.0000 
Pxy      =         0.0000 Pxz      =         0.0000 Pyz      =         0.0000 
Lx       =        15.0000 Ly       =        15.0000 Lz       =       255.0510 
---------------- Step       10 ----- CPU =      0.9138 (sec) ----------------
TotEng   =         0.0000 PotEng   =         0.0000 KinEng   =         0.0000 
Temp     =         0.0000 E_vdwl   =         0.0000 Press    =         0.0000 
Pxx      =         0.0000 Pyy      =         0.0000 Pzz      =         0.0000 
Pxy      =         0.0000 Pxz      =         0.0000 Pyz      =         0.0000 
Lx       =        15.0000 Ly       =        15.0000 Lz       =       255.0510 
---------------- Step       11 ----- CPU =      1.0053 (sec) ----------------
TotEng   =         0.0000 PotEng   =         0.0000 KinEng   =         0.0000 
Temp     =         0.0000 E_vdwl   =         0.0000 Press    =         0.0000 
Pxx      =         0.0000 Pyy      =         0.0000 Pzz      =         0.0000 
Pxy      =         0.0000 Pxz      =         0.0000 Pyz      =         0.0000 
Lx       =        15.0000 Ly       =        15.0000 Lz       =       255.0510 
---------------- Step       12 ----- CPU =      1.1041 (sec) ----------------
TotEng   =         0.0000 PotEng   =         0.0000 KinEng   =         0.0000 
Temp     =         0.0000 E_vdwl   =         0.0000 Press    =         0.0000 
Pxx      =         0.0000 Pyy      =         0.0000 Pzz      =         0.0000 
Pxy      =         0.0000 Pxz      =         0.0000 Pyz      =         0.0000 
Lx       =        15.0000 Ly       =        15.0000 Lz       =       255.0510 
---------------- Step       13 ----- CPU =      1.1922 (sec) ----------------
TotEng   =         0.0000 PotEng   =         0.0000 KinEng   =         0.0000 
Temp     =         0.0000 E_vdwl   =         0.0000 Press    =         0.0000 
Pxx      =         0.0000 Pyy      =         0.0000 Pzz      =         0.0000 
Pxy      =         0.0000 Pxz      =         0.0000 Pyz      =         0.0000 
Lx       =        15.0000 Ly       =        15.0000 Lz       =       255.0510 
---------------- Step       14 ----- CPU =      1.2869 (sec) ----------------
TotEng   =         0.0000 PotEng   =         0.0000 KinEng   =         0.0000 
Temp     =         0.0000 E_vdwl   =         0.0000 Press    =         0.0000 
Pxx      =         0.0000 Pyy      =         0.0000 Pzz      =         0.0000 
Pxy      =         0.0000 Pxz      =         0.0000 Pyz      =         0.0000 
Lx       =        15.0000 Ly       =        15.0000 Lz       =       255.0510 
---------------- Step       15 ----- CPU =      1.3686 (sec) ----------------
TotEng   =         0.0000 PotEng   =         0.0000 KinEng   =         0.0000 
Temp     =         0.0000 E_vdwl   =         0.0000 Press    =         0.0000 
Pxx      =         0.0000 Pyy      =         0.0000 Pzz      =         0.0000 
Pxy      =         0.0000 Pxz      =         0.0000 Pyz      =         0.0000 
Lx       =        15.0000 Ly       =        15.0000 Lz       =       255.0510 
---------------- Step       16 ----- CPU =      1.4453 (sec) ----------------
TotEng   =         0.0000 PotEng   =         0.0000 KinEng   =         0.0000 
Temp     =         0.0000 E_vdwl   =         0.0000 Press    =         0.0000 
Pxx      =         0.0000 Pyy      =         0.0000 Pzz      =         0.0000 
Pxy      =         0.0000 Pxz      =         0.0000 Pyz      =         0.0000 
Lx       =        15.0000 Ly       =        15.0000 Lz       =       255.0510 
---------------- Step       17 ----- CPU =      1.5196 (sec) ----------------
TotEng   =         0.0000 PotEng   =         0.0000 KinEng   =         0.0000 
Temp     =         0.0000 E_vdwl   =         0.0000 Press    =         0.0000 
Pxx      =         0.0000 Pyy      =         0.0000 Pzz      =         0.0000 
Pxy      =         0.0000 Pxz      =         0.0000 Pyz      =         0.0000 
Lx       =        15.0000 Ly       =        15.0000 Lz       =       255.0510 
---------------- Step       18 ----- CPU =      1.6292 (sec) ----------------
TotEng   =         0.0000 PotEng   =         0.0000 KinEng   =         0.0000 
Temp     =         0.0000 E_vdwl   =         0.0000 Press    =         0.0000 
Pxx      =         0.0000 Pyy      =         0.0000 Pzz      =         0.0000 
Pxy      =         0.0000 Pxz      =         0.0000 Pyz      =         0.0000 
Lx       =        15.0000 Ly       =        15.0000 Lz       =       255.0510 
---------------- Step       19 ----- CPU =      1.7502 (sec) ----------------
TotEng   =         0.0000 PotEng   =         0.0000 KinEng   =         0.0000 
Temp     =         0.0000 E_vdwl   =         0.0000 Press    =         0.0000 
Pxx      =         0.0000 Pyy      =         0.0000 Pzz      =         0.0000 
Pxy      =         0.0000 Pxz      =         0.0000 Pyz      =         0.0000 
Lx       =        15.0000 Ly       =        15.0000 Lz       =       255.0510 
---------------- Step       20 ----- CPU =      1.8467 (sec) ----------------
TotEng   =         0.0000 PotEng   =         0.0000 KinEng   =         0.0000 
Temp     =         0.0000 E_vdwl   =         0.0000 Press    =         0.0000 
Pxx      =         0.0000 Pyy      =         0.0000 Pzz      =         0.0000 
Pxy      =         0.0000 Pxz      =         0.0000 Pyz      =         0.0000 
Lx       =        15.0000 Ly       =        15.0000 Lz       =       255.0510 
---------------- Step       21 ----- CPU =      1.9448 (sec) ----------------
TotEng   =         0.0000 PotEng   =         0.0000 KinEng   =         0.0000 
Temp     =         0.0000 E_vdwl   =         0.0000 Press    =         0.0000 
Pxx      =         0.0000 Pyy      =         0.0000 Pzz      =         0.0000 
Pxy      =         0.0000 Pxz      =         0.0000 Pyz      =         0.0000 
Lx       =        15.0000 Ly       =        15.0000 Lz       =       255.0510 
---------------- Step       22 ----- CPU =      2.0647 (sec) ----------------
TotEng   =         0.0000 PotEng   =         0.0000 KinEng   =         0.0000 
Temp     =         0.0000 E_vdwl   =         0.0000 Press    =         0.0000 
Pxx      =         0.0000 Pyy      =         0.0000 Pzz      =         0.0000 
Pxy      =         0.0000 Pxz      =         0.0000 Pyz      =         0.0000 
Lx       =        15.0000 Ly       =        15.0000 Lz       =       255.0510 
---------------- Step       23 ----- CPU =      2.2225 (sec) ----------------
TotEng   =         0.0000 PotEng   =         0.0000 KinEng   =         0.0000 
Temp     =         0.0000 E_vdwl   =         0.0000 Press    =         0.0000 
Pxx      =         0.0000 Pyy      =         0.0000 Pzz      =         0.0000 
Pxy      =         0.0000 Pxz      =         0.0000 Pyz      =         0.0000 
Lx       =        15.0000 Ly       =        15.0000 Lz       =       255.0510 
---------------- Step       24 ----- CPU =      2.3049 (sec) ----------------
TotEng   =         0.0000 PotEng   =         0.0000 KinEng   =         0.0000 
Temp     =         0.0000 E_vdwl   =         0.0000 Press    =         0.0000 
Pxx      =         0.0000 Pyy      =         0.0000 Pzz      =         0.0000 
Pxy      =         0.0000 Pxz      =         0.0000 Pyz      =         0.0000 
Lx       =        15.0000 Ly       =        15.0000 Lz       =       255.0510 
---------------- Step       25 ----- CPU =      2.3843 (sec) ----------------
TotEng   =         0.0000 PotEng   =         0.0000 KinEng   =         0.0000 
Temp     =         0.0000 E_vdwl   =         0.0000 Press    =         0.0000 
Pxx      =         0.0000 Pyy      =         0.0000 Pzz      =         0.0000 
Pxy      =         0.0000 Pxz      =         0.0000 Pyz      =         0.0000 
Lx       =        15.0000 Ly       =        15.0000 Lz       =       255.0510 
---------------- Step       26 ----- CPU =      2.4730 (sec) ----------------
TotEng   =         0.0000 PotEng   =         0.0000 KinEng   =         0.0000 
Temp     =         0.0000 E_vdwl   =         0.0000 Press    =         0.0000 
Pxx      =         0.0000 Pyy      =         0.0000 Pzz      =         0.0000 
Pxy      =         0.0000 Pxz      =         0.0000 Pyz      =         0.0000 
Lx       =        15.0000 Ly       =        15.0000 Lz       =       255.0510 
---------------- Step       27 ----- CPU =      2.5460 (sec) ----------------
TotEng   =         0.0000 PotEng   =         0.0000 KinEng   =         0.0000 
Temp     =         0.0000 E_vdwl   =         0.0000 Press    =         0.0000 
Pxx      =         0.0000 Pyy      =         0.0000 Pzz      =         0.0000 
Pxy      =         0.0000 Pxz      =         0.0000 Pyz      =         0.0000 
Lx       =        15.0000 Ly       =        15.0000 Lz       =       255.0510 
---------------- Step       28 ----- CPU =      2.6409 (sec) ----------------
TotEng   =         0.0000 PotEng   =         0.0000 KinEng   =         0.0000 
Temp     =         0.0000 E_vdwl   =         0.0000 Press    =         0.0000 
Pxx      =         0.0000 Pyy      =         0.0000 Pzz      =         0.0000 
Pxy      =         0.0000 Pxz      =         0.0000 Pyz      =         0.0000 
Lx       =        15.0000 Ly       =        15.0000 Lz       =       255.0510 
---------------- Step       29 ----- CPU =      2.7332 (sec) ----------------
TotEng   =         0.0000 PotEng   =         0.0000 KinEng   =         0.0000 
Temp     =         0.0000 E_vdwl   =         0.0000 Press    =         0.0000 
Pxx      =         0.0000 Pyy      =         0.0000 Pzz      =         0.0000 
Pxy      =         0.0000 Pxz      =         0.0000 Pyz      =         0.0000 
Lx       =        15.0000 Ly       =        15.0000 Lz       =       255.0510 
---------------- Step       30 ----- CPU =      2.8246 (sec) ----------------
TotEng   =         0.0000 PotEng   =         0.0000 KinEng   =         0.0000 
Temp     =         0.0000 E_vdwl   =         0.0000 Press    =         0.0000 
Pxx      =         0.0000 Pyy      =         0.0000 Pzz      =         0.0000 
Pxy      =         0.0000 Pxz      =         0.0000 Pyz      =         0.0000 
Lx       =        15.0000 Ly       =        15.0000 Lz       =       255.0510 
---------------- Step       31 ----- CPU =      2.9077 (sec) ----------------
TotEng   =         0.0000 PotEng   =         0.0000 KinEng   =         0.0000 
Temp     =         0.0000 E_vdwl   =         0.0000 Press    =         0.0000 
Pxx      =         0.0000 Pyy      =         0.0000 Pzz      =         0.0000 
Pxy      =         0.0000 Pxz      =         0.0000 Pyz      =         0.0000 
Lx       =        15.0000 Ly       =        15.0000 Lz       =       255.0510 
---------------- Step       32 ----- CPU =      2.9965 (sec) ----------------
TotEng   =         0.0000 PotEng   =         0.0000 KinEng   =         0.0000 
Temp     =         0.0000 E_vdwl   =         0.0000 Press    =         0.0000 
Pxx      =         0.0000 Pyy      =         0.0000 Pzz      =         0.0000 
Pxy      =         0.0000 Pxz      =         0.0000 Pyz      =         0.0000 
Lx       =        15.0000 Ly       =        15.0000 Lz       =       255.0510 
---------------- Step       33 ----- CPU =      3.0911 (sec) ----------------
TotEng   =         0.0000 PotEng   =         0.0000 KinEng   =         0.0000 
Temp     =         0.0000 E_vdwl   =         0.0000 Press    =         0.0000 
Pxx      =         0.0000 Pyy      =         0.0000 Pzz      =         0.0000 
Pxy      =         0.0000 Pxz      =         0.0000 Pyz      =         0.0000 
Lx       =        15.0000 Ly       =        15.0000 Lz       =       255.0510 
---------------- Step       34 ----- CPU =      3.2123 (sec) ----------------
TotEng   =         0.0000 PotEng   =         0.0000 KinEng   =         0.0000 
Temp     =         0.0000 E_vdwl   =         0.0000 Press    =         0.0000 
Pxx      =         0.0000 Pyy      =         0.0000 Pzz      =         0.0000 
Pxy      =         0.0000 Pxz      =         0.0000 Pyz      =         0.0000 
Lx       =        15.0000 Ly       =        15.0000 Lz       =       255.0510 
---------------- Step       35 ----- CPU =      3.2989 (sec) ----------------
TotEng   =         0.0000 PotEng   =         0.0000 KinEng   =         0.0000 
Temp     =         0.0000 E_vdwl   =         0.0000 Press    =         0.0000 
Pxx      =         0.0000 Pyy      =         0.0000 Pzz      =         0.0000 
Pxy      =         0.0000 Pxz      =         0.0000 Pyz      =         0.0000 
Lx       =        15.0000 Ly       =        15.0000 Lz       =       255.0510 
---------------- Step       36 ----- CPU =      3.4108 (sec) ----------------
TotEng   =         0.0000 PotEng   =         0.0000 KinEng   =         0.0000 
Temp     =         0.0000 E_vdwl   =         0.0000 Press    =         0.0000 
Pxx      =         0.0000 Pyy      =         0.0000 Pzz      =         0.0000 
Pxy      =         0.0000 Pxz      =         0.0000 Pyz      =         0.0000 
Lx       =        15.0000 Ly       =        15.0000 Lz       =       255.0510 
---------------- Step       37 ----- CPU =      3.5249 (sec) ----------------
TotEng   =         0.0000 PotEng   =         0.0000 KinEng   =         0.0000 
Temp     =         0.0000 E_vdwl   =         0.0000 Press    =         0.0000 
Pxx      =         0.0000 Pyy      =         0.0000 Pzz      =         0.0000 
Pxy      =         0.0000 Pxz      =         0.0000 Pyz      =         0.0000 
Lx       =        15.0000 Ly       =        15.0000 Lz       =       255.0510 
---------------- Step       38 ----- CPU =      3.6609 (sec) ----------------
TotEng   =         0.0000 PotEng   =         0.0000 KinEng   =         0.0000 
Temp     =         0.0000 E_vdwl   =         0.0000 Press    =         0.0000 
Pxx      =         0.0000 Pyy      =         0.0000 Pzz      =         0.0000 
Pxy      =         0.0000 Pxz      =         0.0000 Pyz      =         0.0000 
Lx       =        15.0000 Ly       =        15.0000 Lz       =       255.0510 
---------------- Step       39 ----- CPU =      3.7509 (sec) ----------------
TotEng   =         0.0000 PotEng   =         0.0000 KinEng   =         0.0000 
Temp     =         0.0000 E_vdwl   =         0.0000 Press    =         0.0000 
Pxx      =         0.0000 Pyy      =         0.0000 Pzz      =         0.0000 
Pxy      =         0.0000 Pxz      =         0.0000 Pyz      =         0.0000 
Lx       =        15.0000 Ly       =        15.0000 Lz       =       255.0510 
---------------- Step       40 ----- CPU =      3.8547 (sec) ----------------
TotEng   =         0.0000 PotEng   =         0.0000 KinEng   =         0.0000 
Temp     =         0.0000 E_vdwl   =         0.0000 Press    =         0.0000 
Pxx      =         0.0000 Pyy      =         0.0000 Pzz      =         0.0000 
Pxy      =         0.0000 Pxz      =         0.0000 Pyz      =         0.0000 
Lx       =        15.0000 Ly       =        15.0000 Lz       =       255.0510 
---------------- Step       41 ----- CPU =      3.9544 (sec) ----------------
TotEng   =         0.0000 PotEng   =         0.0000 KinEng   =         0.0000 
Temp     =         0.0000 E_vdwl   =         0.0000 Press    =         0.0000 
Pxx      =         0.0000 Pyy      =         0.0000 Pzz      =         0.0000 
Pxy      =         0.0000 Pxz      =         0.0000 Pyz      =         0.0000 
Lx       =        15.0000 Ly       =        15.0000 Lz       =       255.0510 
---------------- Step       42 ----- CPU =      4.0709 (sec) ----------------
TotEng   =         0.0000 PotEng   =         0.0000 KinEng   =         0.0000 
Temp     =         0.0000 E_vdwl   =         0.0000 Press    =         0.0000 
Pxx      =         0.0000 Pyy      =         0.0000 Pzz      =         0.0000 
Pxy      =         0.0000 Pxz      =         0.0000 Pyz      =         0.0000 
Lx       =        15.0000 Ly       =        15.0000 Lz       =       255.0510 
---------------- Step       43 ----- CPU =      4.2059 (sec) ----------------
TotEng   =         0.0000 PotEng   =         0.0000 KinEng   =         0.0000 
Temp     =         0.0000 E_vdwl   =         0.0000 Press    =         0.0000 
Pxx      =         0.0000 Pyy      =         0.0000 Pzz      =         0.0000 
Pxy      =         0.0000 Pxz      =         0.0000 Pyz      =         0.0000 
Lx       =        15.0000 Ly       =        15.0000 Lz       =       255.0510 
---------------- Step       44 ----- CPU =      4.3561 (sec) ----------------
TotEng   =         0.0000 PotEng   =         0.0000 KinEng   =         0.0000 
Temp     =         0.0000 E_vdwl   =         0.0000 Press    =         0.0000 
Pxx      =         0.0000 Pyy      =         0.0000 Pzz      =         0.0000 
Pxy      =         0.0000 Pxz      =         0.0000 Pyz      =         0.0000 
Lx       =        15.0000 Ly       =        15.0000 Lz       =       255.0510 
---------------- Step       45 ----- CPU =      4.4490 (sec) ----------------
TotEng   =         0.0000 PotEng   =         0.0000 KinEng   =         0.0000 
Temp     =         0.0000 E_vdwl   =         0.0000 Press    =         0.0000 
Pxx      =         0.0000 Pyy      =         0.0000 Pzz      =         0.0000 
Pxy      =         0.0000 Pxz      =         0.0000 Pyz      =         0.0000 
Lx       =        15.0000 Ly       =        15.0000 Lz       =       255.0510 
---------------- Step       46 ----- CPU =      4.5301 (sec) ----------------
TotEng   =         0.0000 PotEng   =         0.0000 KinEng   =         0.0000 
Temp     =         0.0000 E_vdwl   =         0.0000 Press    =         0.0000 
Pxx      =         0.0000 Pyy      =         0.0000 Pzz      =         0.0000 
Pxy      =         0.0000 Pxz      =         0.0000 Pyz      =         0.0000 
Lx       =        15.0000 Ly       =        15.0000 Lz       =       255.0510 
---------------- Step       47 ----- CPU =      4.6133 (sec) ----------------
TotEng   =         0.0000 PotEng   =         0.0000 KinEng   =         0.0000 
Temp     =         0.0000 E_vdwl   =         0.0000 Press    =         0.0000 
Pxx      =         0.0000 Pyy      =         0.0000 Pzz      =         0.0000 
Pxy      =         0.0000 Pxz      =         0.0000 Pyz      =         0.0000 
Lx       =        15.0000 Ly       =        15.0000 Lz       =       255.0510 
---------------- Step       48 ----- CPU =      4.7142 (sec) ----------------
TotEng   =         0.0000 PotEng   =         0.0000 KinEng   =         0.0000 
Temp     =         0.0000 E_vdwl   =         0.0000 Press    =         0.0000 
Pxx      =         0.0000 Pyy      =         0.0000 Pzz      =         0.0000 
Pxy      =         0.0000 Pxz      =         0.0000 Pyz      =         0.0000 
Lx       =        15.0000 Ly       =        15.0000 Lz       =       255.0510 
---------------- Step       49 ----- CPU =      4.8273 (sec) ----------------
TotEng   =         0.0000 PotEng   =         0.0000 KinEng   =         0.0000 
Temp     =         0.0000 E_vdwl   =         0.0000 Press    =         0.0000 
Pxx      =         0.0000 Pyy      =         0.0000 Pzz      =         0.0000 
Pxy      =         0.0000 Pxz      =         0.0000 Pyz      =         0.0000 
Lx       =        15.0000 Ly       =        15.0000 Lz       =       255.0510 
---------------- Step       50 ----- CPU =      4.9108 (sec) ----------------
TotEng   =         0.0000 PotEng   =         0.0000 KinEng   =         0.0000 
Temp     =         0.0000 E_vdwl   =         0.0000 Press    =         0.0000 
Pxx      =         0.0000 Pyy      =         0.0000 Pzz      =         0.0000 
Pxy      =         0.0000 Pxz      =         0.0000 Pyz      =         0.0000 
Lx       =        15.0000 Ly       =        15.0000 Lz       =       255.0510 
---------------- Step       51 ----- CPU =      5.0114 (sec) ----------------
TotEng   =         0.0000 PotEng   =         0.0000 KinEng   =         0.0000 
Temp     =         0.0000 E_vdwl   =         0.0000 Press    =         0.0000 
Pxx      =         0.0000 Pyy      =         0.0000 Pzz      =         0.0000 
Pxy      =         0.0000 Pxz      =         0.0000 Pyz      =         0.0000 
Lx       =        15.0000 Ly       =        15.0000 Lz       =       255.0510 
---------------- Step       52 ----- CPU =      5.1142 (sec) ----------------
TotEng   =         0.0000 PotEng   =         0.0000 KinEng   =         0.0000 
Temp     =         0.0000 E_vdwl   =         0.0000 Press    =         0.0000 
Pxx      =         0.0000 Pyy      =         0.0000 Pzz      =         0.0000 
Pxy      =         0.0000 Pxz      =         0.0000 Pyz      =         0.0000 
Lx       =        15.0000 Ly       =        15.0000 Lz       =       255.0510 
---------------- Step       53 ----- CPU =      5.2210 (sec) ----------------
TotEng   =         0.0000 PotEng   =         0.0000 KinEng   =         0.0000 
Temp     =         0.0000 E_vdwl   =         0.0000 Press    =         0.0000 
Pxx      =         0.0000 Pyy      =         0.0000 Pzz      =         0.0000 
Pxy      =         0.0000 Pxz      =         0.0000 Pyz      =         0.0000 
Lx       =        15.0000 Ly       =        15.0000 Lz       =       255.0510 
---------------- Step       54 ----- CPU =      5.3228 (sec) ----------------
TotEng   =         0.0000 PotEng   =         0.0000 KinEng   =         0.0000 
Temp     =         0.0000 E_vdwl   =         0.0000 Press    =         0.0000 
Pxx      =         0.0000 Pyy      =         0.0000 Pzz      =         0.0000 
Pxy      =         0.0000 Pxz      =         0.0000 Pyz      =         0.0000 
Lx       =        15.0000 Ly       =        15.0000 Lz       =       255.0510 
---------------- Step       55 ----- CPU =      5.4337 (sec) ----------------
TotEng   =         0.0000 PotEng   =         0.0000 KinEng   =         0.0000 
Temp     =         0.0000 E_vdwl   =         0.0000 Press    =         0.0000 
Pxx      =         0.0000 Pyy      =         0.0000 Pzz      =         0.0000 
Pxy      =         0.0000 Pxz      =         0.0000 Pyz      =         0.0000 
Lx       =        15.0000 Ly       =        15.0000 Lz       =       255.0510 
---------------- Step       56 ----- CPU =      5.5507 (sec) ----------------
TotEng   =         0.0000 PotEng   =         0.0000 KinEng   =         0.0000 
Temp     =         0.0000 E_vdwl   =         0.0000 Press    =         0.0000 
Pxx      =         0.0000 Pyy      =         0.0000 Pzz      =         0.0000 
Pxy      =         0.0000 Pxz      =         0.0000 Pyz      =         0.0000 
Lx       =        15.0000 Ly       =        15.0000 Lz       =       255.0510 
---------------- Step       57 ----- CPU =      5.6608 (sec) ----------------
TotEng   =         0.0000 PotEng   =         0.0000 KinEng   =         0.0000 
Temp     =         0.0000 E_vdwl   =         0.0000 Press    =         0.0000 
Pxx      =         0.0000 Pyy      =         0.0000 Pzz      =         0.0000 
Pxy      =         0.0000 Pxz      =         0.0000 Pyz      =         0.0000 
Lx       =        15.0000 Ly       =        15.0000 Lz       =       255.0510 
---------------- Step       58 ----- CPU =      5.7394 (sec) ----------------
TotEng   =         0.0000 PotEng   =         0.0000 KinEng   =         0.0000 
Temp     =         0.0000 E_vdwl   =         0.0000 Press    =         0.0000 
Pxx      =         0.0000 Pyy      =         0.0000 Pzz      =         0.0000 
Pxy      =         0.0000 Pxz      =         0.0000 Pyz      =         0.0000 
Lx       =        15.0000 Ly       =        15.0000 Lz       =       255.0510 
---------------- Step       59 ----- CPU =      5.8213 (sec) ----------------
TotEng   =         0.0000 PotEng   =         0.0000 KinEng   =         0.0000 
Temp     =         0.0000 E_vdwl   =         0.0000 Press    =         0.0000 
Pxx      =         0.0000 Pyy      =         0.0000 Pzz      =         0.0000 
Pxy      =         0.0000 Pxz      =         0.0000 Pyz      =         0.0000 
Lx       =        15.0000 Ly       =        15.0000 Lz       =       255.0510 
---------------- Step       60 ----- CPU =      5.8986 (sec) ----------------
TotEng   =         0.0000 PotEng   =         0.0000 KinEng   =         0.0000 
Temp     =         0.0000 E_vdwl   =         0.0000 Press    =         0.0000 
Pxx      =         0.0000 Pyy      =         0.0000 Pzz      =         0.0000 
Pxy      =         0.0000 Pxz      =         0.0000 Pyz      =         0.0000 
Lx       =        15.0000 Ly       =        15.0000 Lz       =       255.0510 
---------------- Step       61 ----- CPU =      5.9906 (sec) ----------------
TotEng   =         0.0000 PotEng   =         0.0000 KinEng   =         0.0000 
Temp     =         0.0000 E_vdwl   =         0.0000 Press    =         0.0000 
Pxx      =         0.0000 Pyy      =         0.0000 Pzz      =         0.0000 
Pxy      =         0.0000 Pxz      =         0.0000 Pyz      =         0.0000 
Lx       =        15.0000 Ly       =        15.0000 Lz       =       255.0510 
---------------- Step       62 ----- CPU =      6.1077 (sec) ----------------
TotEng   =         0.0000 PotEng   =         0.0000 KinEng   =         0.0000 
Temp     =         0.0000 E_vdwl   =         0.0000 Press    =         0.0000 
Pxx      =         0.0000 Pyy      =         0.0000 Pzz      =         0.0000 
Pxy      =         0.0000 Pxz      =         0.0000 Pyz      =         0.0000 
Lx       =        15.0000 Ly       =        15.0000 Lz       =       255.0510 
---------------- Step       63 ----- CPU =      6.2323 (sec) ----------------
TotEng   =         0.0000 PotEng   =         0.0000 KinEng   =         0.0000 
Temp     =         0.0000 E_vdwl   =         0.0000 Press    =         0.0000 
Pxx      =         0.0000 Pyy      =         0.0000 Pzz      =         0.0000 
Pxy      =         0.0000 Pxz      =         0.0000 Pyz      =         0.0000 
Lx       =        15.0000 Ly       =        15.0000 Lz       =       255.0510 
---------------- Step       64 ----- CPU =      6.3273 (sec) ----------------
TotEng   =         0.0000 PotEng   =         0.0000 KinEng   =         0.0000 
Temp     =         0.0000 E_vdwl   =         0.0000 Press    =         0.0000 
Pxx      =         0.0000 Pyy      =         0.0000 Pzz      =         0.0000 
Pxy      =         0.0000 Pxz      =         0.0000 Pyz      =         0.0000 
Lx       =        15.0000 Ly       =        15.0000 Lz       =       255.0510 
---------------- Step       65 ----- CPU =      6.4615 (sec) ----------------
TotEng   =         0.0000 PotEng   =         0.0000 KinEng   =         0.0000 
Temp     =         0.0000 E_vdwl   =         0.0000 Press    =         0.0000 
Pxx      =         0.0000 Pyy      =         0.0000 Pzz      =         0.0000 
Pxy      =         0.0000 Pxz      =         0.0000 Pyz      =         0.0000 
Lx       =        15.0000 Ly       =        15.0000 Lz       =       255.0510 
---------------- Step       66 ----- CPU =      6.5792 (sec) ----------------
TotEng   =         0.0000 PotEng   =         0.0000 KinEng   =         0.0000 
Temp     =         0.0000 E_vdwl   =         0.0000 Press    =         0.0000 
Pxx      =         0.0000 Pyy      =         0.0000 Pzz      =         0.0000 
Pxy      =         0.0000 Pxz      =         0.0000 Pyz      =         0.0000 
Lx       =        15.0000 Ly       =        15.0000 Lz       =       255.0510 
---------------- Step       67 ----- CPU =      6.7028 (sec) ----------------
TotEng   =         0.0000 PotEng   =         0.0000 KinEng   =         0.0000 
Temp     =         0.0000 E_vdwl   =         0.0000 Press    =         0.0000 
Pxx      =         0.0000 Pyy      =         0.0000 Pzz      =         0.0000 
Pxy      =         0.0000 Pxz      =         0.0000 Pyz      =         0.0000 
Lx       =        15.0000 Ly       =        15.0000 Lz       =       255.0510 
---------------- Step       68 ----- CPU =      6.8014 (sec) ----------------
TotEng   =         0.0000 PotEng   =         0.0000 KinEng   =         0.0000 
Temp     =         0.0000 E_vdwl   =         0.0000 Press    =         0.0000 
Pxx      =         0.0000 Pyy      =         0.0000 Pzz      =         0.0000 
Pxy      =         0.0000 Pxz      =         0.0000 Pyz      =         0.0000 
Lx       =        15.0000 Ly       =        15.0000 Lz       =       255.0510 
---------------- Step       69 ----- CPU =      6.9167 (sec) ----------------
TotEng   =         0.0000 PotEng   =         0.0000 KinEng   =         0.0000 
Temp     =         0.0000 E_vdwl   =         0.0000 Press    =         0.0000 
Pxx      =         0.0000 Pyy      =         0.0000 Pzz      =         0.0000 
Pxy      =         0.0000 Pxz      =         0.0000 Pyz      =         0.0000 
Lx       =        15.0000 Ly       =        15.0000 Lz       =       255.0510 
---------------- Step       70 ----- CPU =      7.0318 (sec) ----------------
TotEng   =         0.0000 PotEng   =         0.0000 KinEng   =         0.0000 
Temp     =         0.0000 E_vdwl   =         0.0000 Press    =         0.0000 
Pxx      =         0.0000 Pyy      =         0.0000 Pzz      =         0.0000 
Pxy      =         0.0000 Pxz      =         0.0000 Pyz      =         0.0000 
Lx       =        15.0000 Ly       =        15.0000 Lz       =       255.0510 
---------------- Step       71 ----- CPU =      7.1381 (sec) ----------------
TotEng   =         0.0000 PotEng   =         0.0000 KinEng   =         0.0000 
Temp     =         0.0000 E_vdwl   =         0.0000 Press    =         0.0000 
Pxx      =         0.0000 Pyy      =         0.0000 Pzz      =         0.0000 
Pxy      =         0.0000 Pxz      =         0.0000 Pyz      =         0.0000 
Lx       =        15.0000 Ly       =        15.0000 Lz       =       255.0510 
---------------- Step       72 ----- CPU =      7.2257 (sec) ----------------
TotEng   =         0.0000 PotEng   =         0.0000 KinEng   =         0.0000 
Temp     =         0.0000 E_vdwl   =         0.0000 Press    =         0.0000 
Pxx      =         0.0000 Pyy      =         0.0000 Pzz      =         0.0000 
Pxy      =         0.0000 Pxz      =         0.0000 Pyz      =         0.0000 
Lx       =        15.0000 Ly       =        15.0000 Lz       =       255.0510 
---------------- Step       73 ----- CPU =      7.3377 (sec) ----------------
TotEng   =         0.0000 PotEng   =         0.0000 KinEng   =         0.0000 
Temp     =         0.0000 E_vdwl   =         0.0000 Press    =         0.0000 
Pxx      =         0.0000 Pyy      =         0.0000 Pzz      =         0.0000 
Pxy      =         0.0000 Pxz      =         0.0000 Pyz      =         0.0000 
Lx       =        15.0000 Ly       =        15.0000 Lz       =       255.0510 
---------------- Step       74 ----- CPU =      7.4293 (sec) ----------------
TotEng   =         0.0000 PotEng   =         0.0000 KinEng   =         0.0000 
Temp     =         0.0000 E_vdwl   =         0.0000 Press    =         0.0000 
Pxx      =         0.0000 Pyy      =         0.0000 Pzz      =         0.0000 
Pxy      =         0.0000 Pxz      =         0.0000 Pyz      =         0.0000 
Lx       =        15.0000 Ly       =        15.0000 Lz       =       255.0510 
---------------- Step       75 ----- CPU =      7.5130 (sec) ----------------
TotEng   =         0.0000 PotEng   =         0.0000 KinEng   =         0.0000 
Temp     =         0.0000 E_vdwl   =         0.0000 Press    =         0.0000 
Pxx      =         0.0000 Pyy      =         0.0000 Pzz      =         0.0000 
Pxy      =         0.0000 Pxz      =         0.0000 Pyz      =         0.0000 
Lx       =        15.0000 Ly       =        15.0000 Lz       =       255.0510 
---------------- Step       76 ----- CPU =      7.6159 (sec) ----------------
TotEng   =         0.0000 PotEng   =         0.0000 KinEng   =         0.0000 
Temp     =         0.0000 E_vdwl   =         0.0000 Press    =         0.0000 
Pxx      =         0.0000 Pyy      =         0.0000 Pzz      =         0.0000 
Pxy      =         0.0000 Pxz      =         0.0000 Pyz      =         0.0000 
Lx       =        15.0000 Ly       =        15.0000 Lz       =       255.0510 
---------------- Step       77 ----- CPU =      7.7358 (sec) ----------------
TotEng   =         0.0000 PotEng   =         0.0000 KinEng   =         0.0000 
Temp     =         0.0000 E_vdwl   =         0.0000 Press    =         0.0000 
Pxx      =         0.0000 Pyy      =         0.0000 Pzz      =         0.0000 
Pxy      =         0.0000 Pxz      =         0.0000 Pyz      =         0.0000 
Lx       =        15.0000 Ly       =        15.0000 Lz       =       255.0510 
---------------- Step       78 ----- CPU =      7.8261 (sec) ----------------
TotEng   =         0.0000 PotEng   =         0.0000 KinEng   =         0.0000 
Temp     =         0.0000 E_vdwl   =         0.0000 Press    =         0.0000 
Pxx      =         0.0000 Pyy      =         0.0000 Pzz      =         0.0000 
Pxy      =         0.0000 Pxz      =         0.0000 Pyz      =         0.0000 
Lx       =        15.0000 Ly       =        15.0000 Lz       =       255.0510 
---------------- Step       79 ----- CPU =      7.9247 (sec) ----------------
TotEng   =         0.0000 PotEng   =         0.0000 KinEng   =         0.0000 
Temp     =         0.0000 E_vdwl   =         0.0000 Press    =         0.0000 
Pxx      =         0.0000 Pyy      =         0.0000 Pzz      =         0.0000 
Pxy      =         0.0000 Pxz      =         0.0000 Pyz      =         0.0000 
Lx       =        15.0000 Ly       =        15.0000 Lz       =       255.0510 
---------------- Step       80 ----- CPU =      8.0572 (sec) ----------------
TotEng   =         0.0000 PotEng   =         0.0000 KinEng   =         0.0000 
Temp     =         0.0000 E_vdwl   =         0.0000 Press    =         0.0000 
Pxx      =         0.0000 Pyy      =         0.0000 Pzz      =         0.0000 
Pxy      =         0.0000 Pxz      =         0.0000 Pyz      =         0.0000 
Lx       =        15.0000 Ly       =        15.0000 Lz       =       255.0510 
---------------- Step       81 ----- CPU =      8.1627 (sec) ----------------
TotEng   =         0.0000 PotEng   =         0.0000 KinEng   =         0.0000 
Temp     =         0.0000 E_vdwl   =         0.0000 Press    =         0.0000 
Pxx      =         0.0000 Pyy      =         0.0000 Pzz      =         0.0000 
Pxy      =         0.0000 Pxz      =         0.0000 Pyz      =         0.0000 
Lx       =        15.0000 Ly       =        15.0000 Lz       =       255.0510 
---------------- Step       82 ----- CPU =      8.2931 (sec) ----------------
TotEng   =         0.0000 PotEng   =         0.0000 KinEng   =         0.0000 
Temp     =         0.0000 E_vdwl   =         0.0000 Press    =         0.0000 
Pxx      =         0.0000 Pyy      =         0.0000 Pzz      =         0.0000 
Pxy      =         0.0000 Pxz      =         0.0000 Pyz      =         0.0000 
Lx       =        15.0000 Ly       =        15.0000 Lz       =       255.0510 
---------------- Step       83 ----- CPU =      8.3795 (sec) ----------------
TotEng   =         0.0000 PotEng   =         0.0000 KinEng   =         0.0000 
Temp     =         0.0000 E_vdwl   =         0.0000 Press    =         0.0000 
Pxx      =         0.0000 Pyy      =         0.0000 Pzz      =         0.0000 
Pxy      =         0.0000 Pxz      =         0.0000 Pyz      =         0.0000 
Lx       =        15.0000 Ly       =        15.0000 Lz       =       255.0510 
---------------- Step       84 ----- CPU =      8.4987 (sec) ----------------
TotEng   =         0.0000 PotEng   =         0.0000 KinEng   =         0.0000 
Temp     =         0.0000 E_vdwl   =         0.0000 Press    =         0.0000 
Pxx      =         0.0000 Pyy      =         0.0000 Pzz      =         0.0000 
Pxy      =         0.0000 Pxz      =         0.0000 Pyz      =         0.0000 
Lx       =        15.0000 Ly       =        15.0000 Lz       =       255.0510 
---------------- Step       85 ----- CPU =      8.6098 (sec) ----------------
TotEng   =         0.0000 PotEng   =         0.0000 KinEng   =         0.0000 
Temp     =         0.0000 E_vdwl   =         0.0000 Press    =         0.0000 
Pxx      =         0.0000 Pyy      =         0.0000 Pzz      =         0.0000 
Pxy      =         0.0000 Pxz      =         0.0000 Pyz      =         0.0000 
Lx       =        15.0000 Ly       =        15.0000 Lz       =       255.0510 
---------------- Step       86 ----- CPU =      8.7225 (sec) ----------------
TotEng   =         0.0000 PotEng   =         0.0000 KinEng   =         0.0000 
Temp     =         0.0000 E_vdwl   =         0.0000 Press    =         0.0000 
Pxx      =         0.0000 Pyy      =         0.0000 Pzz      =         0.0000 
Pxy      =         0.0000 Pxz      =         0.0000 Pyz      =         0.0000 
Lx       =        15.0000 Ly       =        15.0000 Lz       =       255.0510 
---------------- Step       87 ----- CPU =      8.8111 (sec) ----------------
TotEng   =         0.0000 PotEng   =         0.0000 KinEng   =         0.0000 
Temp     =         0.0000 E_vdwl   =         0.0000 Press    =         0.0000 
Pxx      =         0.0000 Pyy      =         0.0000 Pzz      =         0.0000 
Pxy      =         0.0000 Pxz      =         0.0000 Pyz      =         0.0000 
Lx       =        15.0000 Ly       =        15.0000 Lz       =       255.0510 
---------------- Step       88 ----- CPU =      8.9379 (sec) ----------------
TotEng   =         0.0000 PotEng   =         0.0000 KinEng   =         0.0000 
Temp     =         0.0000 E_vdwl   =         0.0000 Press    =         0.0000 
Pxx      =         0.0000 Pyy      =         0.0000 Pzz      =         0.0000 
Pxy      =         0.0000 Pxz      =         0.0000 Pyz      =         0.0000 
Lx       =        15.0000 Ly       =        15.0000 Lz       =       255.0510 
---------------- Step       89 ----- CPU =      9.0360 (sec) ----------------
TotEng   =         0.0000 PotEng   =         0.0000 KinEng   =         0.0000 
Temp     =         0.0000 E_vdwl   =         0.0000 Press    =         0.0000 
Pxx      =         0.0000 Pyy      =         0.0000 Pzz      =         0.0000 
Pxy      =         0.0000 Pxz      =         0.0000 Pyz      =         0.0000 
Lx       =        15.0000 Ly       =        15.0000 Lz       =       255.0510 
---------------- Step       90 ----- CPU =      9.1431 (sec) ----------------
TotEng   =         0.0000 PotEng   =         0.0000 KinEng   =         0.0000 
Temp     =         0.0000 E_vdwl   =         0.0000 Press    =         0.0000 
Pxx      =         0.0000 Pyy      =         0.0000 Pzz      =         0.0000 
Pxy      =         0.0000 Pxz      =         0.0000 Pyz      =         0.0000 
Lx       =        15.0000 Ly       =        15.0000 Lz       =       255.0510 
---------------- Step       91 ----- CPU =      9.2270 (sec) ----------------
TotEng   =         0.0000 PotEng   =         0.0000 KinEng   =         0.0000 
Temp     =         0.0000 E_vdwl   =         0.0000 Press    =         0.0000 
Pxx      =         0.0000 Pyy      =         0.0000 Pzz      =         0.0000 
Pxy      =         0.0000 Pxz      =         0.0000 Pyz      =         0.0000 
Lx       =        15.0000 Ly       =        15.0000 Lz       =       255.0510 
---------------- Step       92 ----- CPU =      9.3145 (sec) ----------------
TotEng   =         0.0000 PotEng   =         0.0000 KinEng   =         0.0000 
Temp     =         0.0000 E_vdwl   =         0.0000 Press    =         0.0000 
Pxx      =         0.0000 Pyy      =         0.0000 Pzz      =         0.0000 
Pxy      =         0.0000 Pxz      =         0.0000 Pyz      =         0.0000 
Lx       =        15.0000 Ly       =        15.0000 Lz       =       255.0510 
---------------- Step       93 ----- CPU =      9.4120 (sec) ----------------
TotEng   =         0.0000 PotEng   =         0.0000 KinEng   =         0.0000 
Temp     =         0.0000 E_vdwl   =         0.0000 Press    =         0.0000 
Pxx      =         0.0000 Pyy      =         0.0000 Pzz      =         0.0000 
Pxy      =         0.0000 Pxz      =         0.0000 Pyz      =         0.0000 
Lx       =        15.0000 Ly       =        15.0000 Lz       =       255.0510 
---------------- Step       94 ----- CPU =      9.5358 (sec) ----------------
TotEng   =         0.0000 PotEng   =         0.0000 KinEng   =         0.0000 
Temp     =         0.0000 E_vdwl   =         0.0000 Press    =         0.0000 
Pxx      =         0.0000 Pyy      =         0.0000 Pzz      =         0.0000 
Pxy      =         0.0000 Pxz      =         0.0000 Pyz      =         0.0000 
Lx       =        15.0000 Ly       =        15.0000 Lz       =       255.0510 
---------------- Step       95 ----- CPU =      9.6517 (sec) ----------------
TotEng   =         0.0000 PotEng   =         0.0000 KinEng   =         0.0000 
Temp     =         0.0000 E_vdwl   =         0.0000 Press    =         0.0000 
Pxx      =         0.0000 Pyy      =         0.0000 Pzz      =         0.0000 
Pxy      =         0.0000 Pxz      =         0.0000 Pyz      =         0.0000 
Lx       =        15.0000 Ly       =        15.0000 Lz       =       255.0510 
---------------- Step       96 ----- CPU =      9.7479 (sec) ----------------
TotEng   =         0.0000 PotEng   =         0.0000 KinEng   =         0.0000 
Temp     =         0.0000 E_vdwl   =         0.0000 Press    =         0.0000 
Pxx      =         0.0000 Pyy      =         0.0000 Pzz      =         0.0000 
Pxy      =         0.0000 Pxz      =         0.0000 Pyz      =         0.0000 
Lx       =        15.0000 Ly       =        15.0000 Lz       =       255.0510 
---------------- Step       97 ----- CPU =      9.8625 (sec) ----------------
TotEng   =         0.0000 PotEng   =         0.0000 KinEng   =         0.0000 
Temp     =         0.0000 E_vdwl   =         0.0000 Press    =         0.0000 
Pxx      =         0.0000 Pyy      =         0.0000 Pzz      =         0.0000 
Pxy      =         0.0000 Pxz      =         0.0000 Pyz      =         0.0000 
Lx       =        15.0000 Ly       =        15.0000 Lz       =       255.0510 
---------------- Step       98 ----- CPU =      9.9659 (sec) ----------------
TotEng   =         0.0000 PotEng   =         0.0000 KinEng   =         0.0000 
Temp     =         0.0000 E_vdwl   =         0.0000 Press    =         0.0000 
Pxx      =         0.0000 Pyy      =         0.0000 Pzz      =         0.0000 
Pxy      =         0.0000 Pxz      =         0.0000 Pyz      =         0.0000 
Lx       =        15.0000 Ly       =        15.0000 Lz       =       255.0510 
---------------- Step       99 ----- CPU =     10.0649 (sec) ----------------
TotEng   =         0.0000 PotEng   =         0.0000 KinEng   =         0.0000 
Temp     =         0.0000 E_vdwl   =         0.0000 Press    =         0.0000 
Pxx      =         0.0000 Pyy      =         0.0000 Pzz      =         0.0000 
Pxy      =         0.0000 Pxz      =         0.0000 Pyz      =         0.0000 
Lx       =        15.0000 Ly       =        15.0000 Lz       =       255.0510 
---------------- Step      100 ----- CPU =     10.2162 (sec) ----------------
TotEng   =         0.0000 PotEng   =         0.0000 KinEng   =         0.0000 
Temp     =         0.0000 E_vdwl   =         0.0000 Press    =         0.0000 
Pxx      =         0.0000 Pyy      =         0.0000 Pzz      =         0.0000 
Pxy      =         0.0000 Pxz      =         0.0000 Pyz      =         0.0000 
Lx       =        15.0000 Ly       =        15.0000 Lz       =       255.0510 
---------------- Step      101 ----- CPU =     10.3493 (sec) ----------------
TotEng   =         0.0000 PotEng   =         0.0000 KinEng   =         0.0000 
Temp     =         0.0000 E_vdwl   =         0.0000 Press    =         0.0000 
Pxx      =         0.0000 Pyy      =         0.0000 Pzz      =         0.0000 
Pxy      =         0.0000 Pxz      =         0.0000 Pyz      =         0.0000 
Lx       =        15.0000 Ly       =        15.0000 Lz       =       255.0510 
---------------- Step      102 ----- CPU =     10.4777 (sec) ----------------
TotEng   =         0.0000 PotEng   =         0.0000 KinEng   =         0.0000 
Temp     =         0.0000 E_vdwl   =         0.0000 Press    =         0.0000 
Pxx      =         0.0000 Pyy      =         0.0000 Pzz      =         0.0000 
Pxy      =         0.0000 Pxz      =         0.0000 Pyz      =         0.0000 
Lx       =        15.0000 Ly       =        15.0000 Lz       =       255.0510 
---------------- Step      103 ----- CPU =     10.5824 (sec) ----------------
TotEng   =         0.0000 PotEng   =         0.0000 KinEng   =         0.0000 
Temp     =         0.0000 E_vdwl   =         0.0000 Press    =         0.0000 
Pxx      =         0.0000 Pyy      =         0.0000 Pzz      =         0.0000 
Pxy      =         0.0000 Pxz      =         0.0000 Pyz      =         0.0000 
Lx       =        15.0000 Ly       =        15.0000 Lz       =       255.0510 
---------------- Step      104 ----- CPU =     10.6632 (sec) ----------------
TotEng   =         0.0000 PotEng   =         0.0000 KinEng   =         0.0000 
Temp     =         0.0000 E_vdwl   =         0.0000 Press    =         0.0000 
Pxx      =         0.0000 Pyy      =         0.0000 Pzz      =         0.0000 
Pxy      =         0.0000 Pxz      =         0.0000 Pyz      =         0.0000 
Lx       =        15.0000 Ly       =        15.0000 Lz       =       255.0510 
---------------- Step      105 ----- CPU =     10.7931 (sec) ----------------
TotEng   =         0.0000 PotEng   =         0.0000 KinEng   =         0.0000 
Temp     =         0.0000 E_vdwl   =         0.0000 Press    =         0.0000 
Pxx      =         0.0000 Pyy      =         0.0000 Pzz      =         0.0000 
Pxy      =         0.0000 Pxz      =         0.0000 Pyz      =         0.0000 
Lx       =        15.0000 Ly       =        15.0000 Lz       =       255.0510 
---------------- Step      106 ----- CPU =     10.8883 (sec) ----------------
TotEng   =         0.0000 PotEng   =         0.0000 KinEng   =         0.0000 
Temp     =         0.0000 E_vdwl   =         0.0000 Press    =         0.0000 
Pxx      =         0.0000 Pyy      =         0.0000 Pzz      =         0.0000 
Pxy      =         0.0000 Pxz      =         0.0000 Pyz      =         0.0000 
Lx       =        15.0000 Ly       =        15.0000 Lz       =       255.0510 
---------------- Step      107 ----- CPU =     11.0069 (sec) ----------------
TotEng   =         0.0000 PotEng   =         0.0000 KinEng   =         0.0000 
Temp     =         0.0000 E_vdwl   =         0.0000 Press    =         0.0000 
Pxx      =         0.0000 Pyy      =         0.0000 Pzz      =         0.0000 
Pxy      =         0.0000 Pxz      =         0.0000 Pyz      =         0.0000 
Lx       =        15.0000 Ly       =        15.0000 Lz       =       255.0510 
---------------- Step      108 ----- CPU =     11.1132 (sec) ----------------
TotEng   =         0.0000 PotEng   =         0.0000 KinEng   =         0.0000 
Temp     =         0.0000 E_vdwl   =         0.0000 Press    =         0.0000 
Pxx      =         0.0000 Pyy      =         0.0000 Pzz      =         0.0000 
Pxy      =         0.0000 Pxz      =         0.0000 Pyz      =         0.0000 
Lx       =        15.0000 Ly       =        15.0000 Lz       =       255.0510 
---------------- Step      109 ----- CPU =     11.2287 (sec) ----------------
TotEng   =         0.0000 PotEng   =         0.0000 KinEng   =         0.0000 
Temp     =         0.0000 E_vdwl   =         0.0000 Press    =         0.0000 
Pxx      =         0.0000 Pyy      =         0.0000 Pzz      =         0.0000 
Pxy      =         0.0000 Pxz      =         0.0000 Pyz      =         0.0000 
Lx       =        15.0000 Ly       =        15.0000 Lz       =       255.0510 
---------------- Step      110 ----- CPU =     11.3327 (sec) ----------------
TotEng   =         0.0000 PotEng   =         0.0000 KinEng   =         0.0000 
Temp     =         0.0000 E_vdwl   =         0.0000 Press    =         0.0000 
Pxx      =         0.0000 Pyy      =         0.0000 Pzz      =         0.0000 
Pxy      =         0.0000 Pxz      =         0.0000 Pyz      =         0.0000 
Lx       =        15.0000 Ly       =        15.0000 Lz       =       255.0510 
---------------- Step      111 ----- CPU =     11.4160 (sec) ----------------
TotEng   =         0.0000 PotEng   =         0.0000 KinEng   =         0.0000 
Temp     =         0.0000 E_vdwl   =         0.0000 Press    =         0.0000 
Pxx      =         0.0000 Pyy      =         0.0000 Pzz      =         0.0000 
Pxy      =         0.0000 Pxz      =         0.0000 Pyz      =         0.0000 
Lx       =        15.0000 Ly       =        15.0000 Lz       =       255.0510 
---------------- Step      112 ----- CPU =     11.5085 (sec) ----------------
TotEng   =         0.0000 PotEng   =         0.0000 KinEng   =         0.0000 
Temp     =         0.0000 E_vdwl   =         0.0000 Press    =         0.0000 
Pxx      =         0.0000 Pyy      =         0.0000 Pzz      =         0.0000 
Pxy      =         0.0000 Pxz      =         0.0000 Pyz      =         0.0000 
Lx       =        15.0000 Ly       =        15.0000 Lz       =       255.0510 
---------------- Step      113 ----- CPU =     11.5816 (sec) ----------------
TotEng   =         0.0000 PotEng   =         0.0000 KinEng   =         0.0000 
Temp     =         0.0000 E_vdwl   =         0.0000 Press    =         0.0000 
Pxx      =         0.0000 Pyy      =         0.0000 Pzz      =         0.0000 
Pxy      =         0.0000 Pxz      =         0.0000 Pyz      =         0.0000 
Lx       =        15.0000 Ly       =        15.0000 Lz       =       255.0510 
---------------- Step      114 ----- CPU =     11.7063 (sec) ----------------
TotEng   =         0.0000 PotEng   =         0.0000 KinEng   =         0.0000 
Temp     =         0.0000 E_vdwl   =         0.0000 Press    =         0.0000 
Pxx      =         0.0000 Pyy      =         0.0000 Pzz      =         0.0000 
Pxy      =         0.0000 Pxz      =         0.0000 Pyz      =         0.0000 
Lx       =        15.0000 Ly       =        15.0000 Lz       =       255.0510 
---------------- Step      115 ----- CPU =     11.8348 (sec) ----------------
TotEng   =         0.0000 PotEng   =         0.0000 KinEng   =         0.0000 
Temp     =         0.0000 E_vdwl   =         0.0000 Press    =         0.0000 
Pxx      =         0.0000 Pyy      =         0.0000 Pzz      =         0.0000 
Pxy      =         0.0000 Pxz      =         0.0000 Pyz      =         0.0000 
Lx       =        15.0000 Ly       =        15.0000 Lz       =       255.0510 
---------------- Step      116 ----- CPU =     11.9696 (sec) ----------------
TotEng   =         0.0000 PotEng   =         0.0000 KinEng   =         0.0000 
Temp     =         0.0000 E_vdwl   =         0.0000 Press    =         0.0000 
Pxx      =         0.0000 Pyy      =         0.0000 Pzz      =         0.0000 
Pxy      =         0.0000 Pxz      =         0.0000 Pyz      =         0.0000 
Lx       =        15.0000 Ly       =        15.0000 Lz       =       255.0510 
---------------- Step      117 ----- CPU =     12.0411 (sec) ----------------
TotEng   =         0.0000 PotEng   =         0.0000 KinEng   =         0.0000 
Temp     =         0.0000 E_vdwl   =         0.0000 Press    =         0.0000 
Pxx      =         0.0000 Pyy      =         0.0000 Pzz      =         0.0000 
Pxy      =         0.0000 Pxz      =         0.0000 Pyz      =         0.0000 
Lx       =        15.0000 Ly       =        15.0000 Lz       =       255.0510 
---------------- Step      118 ----- CPU =     12.1420 (sec) ----------------
TotEng   =         0.0000 PotEng   =         0.0000 KinEng   =         0.0000 
Temp     =         0.0000 E_vdwl   =         0.0000 Press    =         0.0000 
Pxx      =         0.0000 Pyy      =         0.0000 Pzz      =         0.0000 
Pxy      =         0.0000 Pxz      =         0.0000 Pyz      =         0.0000 
Lx       =        15.0000 Ly       =        15.0000 Lz       =       255.0510 
---------------- Step      119 ----- CPU =     12.2212 (sec) ----------------
TotEng   =         0.0000 PotEng   =         0.0000 KinEng   =         0.0000 
Temp     =         0.0000 E_vdwl   =         0.0000 Press    =         0.0000 
Pxx      =         0.0000 Pyy      =         0.0000 Pzz      =         0.0000 
Pxy      =         0.0000 Pxz      =         0.0000 Pyz      =         0.0000 
Lx       =        15.0000 Ly       =        15.0000 Lz       =       255.0510 
---------------- Step      120 ----- CPU =     12.3578 (sec) ----------------
TotEng   =         0.0000 PotEng   =         0.0000 KinEng   =         0.0000 
Temp     =         0.0000 E_vdwl   =         0.0000 Press    =         0.0000 
Pxx      =         0.0000 Pyy      =         0.0000 Pzz      =         0.0000 
Pxy      =         0.0000 Pxz      =         0.0000 Pyz      =         0.0000 
Lx       =        15.0000 Ly       =        15.0000 Lz       =       255.0510 
---------------- Step      121 ----- CPU =     12.4901 (sec) ----------------
TotEng   =         0.0000 PotEng   =         0.0000 KinEng   =         0.0000 
Temp     =         0.0000 E_vdwl   =         0.0000 Press    =         0.0000 
Pxx      =         0.0000 Pyy      =         0.0000 Pzz      =         0.0000 
Pxy      =         0.0000 Pxz      =         0.0000 Pyz      =         0.0000 
Lx       =        15.0000 Ly       =        15.0000 Lz       =       255.0510 
---------------- Step      122 ----- CPU =     12.6027 (sec) ----------------
TotEng   =         0.0000 PotEng   =         0.0000 KinEng   =         0.0000 
Temp     =         0.0000 E_vdwl   =         0.0000 Press    =         0.0000 
Pxx      =         0.0000 Pyy      =         0.0000 Pzz      =         0.0000 
Pxy      =         0.0000 Pxz      =         0.0000 Pyz      =         0.0000 
Lx       =        15.0000 Ly       =        15.0000 Lz       =       255.0510 
---------------- Step      123 ----- CPU =     12.6984 (sec) ----------------
TotEng   =         0.0000 PotEng   =         0.0000 KinEng   =         0.0000 
Temp     =         0.0000 E_vdwl   =         0.0000 Press    =         0.0000 
Pxx      =         0.0000 Pyy      =         0.0000 Pzz      =         0.0000 
Pxy      =         0.0000 Pxz      =         0.0000 Pyz      =         0.0000 
Lx       =        15.0000 Ly       =        15.0000 Lz       =       255.0510 
---------------- Step      124 ----- CPU =     12.8245 (sec) ----------------
TotEng   =         0.0000 PotEng   =         0.0000 KinEng   =         0.0000 
Temp     =         0.0000 E_vdwl   =         0.0000 Press    =         0.0000 
Pxx      =         0.0000 Pyy      =         0.0000 Pzz      =         0.0000 
Pxy      =         0.0000 Pxz      =         0.0000 Pyz      =         0.0000 
Lx       =        15.0000 Ly       =        15.0000 Lz       =       255.0510 
---------------- Step      125 ----- CPU =     12.9484 (sec) ----------------
TotEng   =         0.0000 PotEng   =         0.0000 KinEng   =         0.0000 
Temp     =         0.0000 E_vdwl   =         0.0000 Press    =         0.0000 
Pxx      =         0.0000 Pyy      =         0.0000 Pzz      =         0.0000 
Pxy      =         0.0000 Pxz      =         0.0000 Pyz      =         0.0000 
Lx       =        15.0000 Ly       =        15.0000 Lz       =       255.0510 
---------------- Step      126 ----- CPU =     13.0854 (sec) ----------------
TotEng   =         0.0000 PotEng   =         0.0000 KinEng   =         0.0000 
Temp     =         0.0000 E_vdwl   =         0.0000 Press    =         0.0000 
Pxx      =         0.0000 Pyy      =         0.0000 Pzz      =         0.0000 
Pxy      =         0.0000 Pxz      =         0.0000 Pyz      =         0.0000 
Lx       =        15.0000 Ly       =        15.0000 Lz       =       255.0510 
---------------- Step      127 ----- CPU =     13.1677 (sec) ----------------
TotEng   =         0.0000 PotEng   =         0.0000 KinEng   =         0.0000 
Temp     =         0.0000 E_vdwl   =         0.0000 Press    =         0.0000 
Pxx      =         0.0000 Pyy      =         0.0000 Pzz      =         0.0000 
Pxy      =         0.0000 Pxz      =         0.0000 Pyz      =         0.0000 
Lx       =        15.0000 Ly       =        15.0000 Lz       =       255.0510 
---------------- Step      128 ----- CPU =     13.2699 (sec) ----------------
TotEng   =         0.0000 PotEng   =         0.0000 KinEng   =         0.0000 
Temp     =         0.0000 E_vdwl   =         0.0000 Press    =         0.0000 
Pxx      =         0.0000 Pyy      =         0.0000 Pzz      =         0.0000 
Pxy      =         0.0000 Pxz      =         0.0000 Pyz      =         0.0000 
Lx       =        15.0000 Ly       =        15.0000 Lz       =       255.0510 
---------------- Step      129 ----- CPU =     13.3494 (sec) ----------------
TotEng   =         0.0000 PotEng   =         0.0000 KinEng   =         0.0000 
Temp     =         0.0000 E_vdwl   =         0.0000 Press    =         0.0000 
Pxx      =         0.0000 Pyy      =         0.0000 Pzz      =         0.0000 
Pxy      =         0.0000 Pxz      =         0.0000 Pyz      =         0.0000 
Lx       =        15.0000 Ly       =        15.0000 Lz       =       255.0510 
---------------- Step      130 ----- CPU =     13.4813 (sec) ----------------
TotEng   =         0.0000 PotEng   =         0.0000 KinEng   =         0.0000 
Temp     =         0.0000 E_vdwl   =         0.0000 Press    =         0.0000 
Pxx      =         0.0000 Pyy      =         0.0000 Pzz      =         0.0000 
Pxy      =         0.0000 Pxz      =         0.0000 Pyz      =         0.0000 
Lx       =        15.0000 Ly       =        15.0000 Lz       =       255.0510 
---------------- Step      131 ----- CPU =     13.5960 (sec) ----------------
TotEng   =         0.0000 PotEng   =         0.0000 KinEng   =         0.0000 
Temp     =         0.0000 E_vdwl   =         0.0000 Press    =         0.0000 
Pxx      =         0.0000 Pyy      =         0.0000 Pzz      =         0.0000 
Pxy      =         0.0000 Pxz      =         0.0000 Pyz      =         0.0000 
Lx       =        15.0000 Ly       =        15.0000 Lz       =       255.0510 
---------------- Step      132 ----- CPU =     13.6877 (sec) ----------------
TotEng   =         0.0000 PotEng   =         0.0000 KinEng   =         0.0000 
Temp     =         0.0000 E_vdwl   =         0.0000 Press    =         0.0000 
Pxx      =         0.0000 Pyy      =         0.0000 Pzz      =         0.0000 
Pxy      =         0.0000 Pxz      =         0.0000 Pyz      =         0.0000 
Lx       =        15.0000 Ly       =        15.0000 Lz       =       255.0510 
---------------- Step      133 ----- CPU =     13.7881 (sec) ----------------
TotEng   =         0.0000 PotEng   =         0.0000 KinEng   =         0.0000 
Temp     =         0.0000 E_vdwl   =         0.0000 Press    =         0.0000 
Pxx      =         0.0000 Pyy      =         0.0000 Pzz      =         0.0000 
Pxy      =         0.0000 Pxz      =         0.0000 Pyz      =         0.0000 
Lx       =        15.0000 Ly       =        15.0000 Lz       =       255.0510 
---------------- Step      134 ----- CPU =     13.8893 (sec) ----------------
TotEng   =         0.0000 PotEng   =         0.0000 KinEng   =         0.0000 
Temp     =         0.0000 E_vdwl   =         0.0000 Press    =         0.0000 
Pxx      =         0.0000 Pyy      =         0.0000 Pzz      =         0.0000 
Pxy      =         0.0000 Pxz      =         0.0000 Pyz      =         0.0000 
Lx       =        15.0000 Ly       =        15.0000 Lz       =       255.0510 
---------------- Step      135 ----- CPU =     14.0004 (sec) ----------------
TotEng   =         0.0000 PotEng   =         0.0000 KinEng   =         0.0000 
Temp     =         0.0000 E_vdwl   =         0.0000 Press    =         0.0000 
Pxx      =         0.0000 Pyy      =         0.0000 Pzz      =         0.0000 
Pxy      =         0.0000 Pxz      =         0.0000 Pyz      =         0.0000 
Lx       =        15.0000 Ly       =        15.0000 Lz       =       255.0510 
---------------- Step      136 ----- CPU =     14.0785 (sec) ----------------
TotEng   =         0.0000 PotEng   =         0.0000 KinEng   =         0.0000 
Temp     =         0.0000 E_vdwl   =         0.0000 Press    =         0.0000 
Pxx      =         0.0000 Pyy      =         0.0000 Pzz      =         0.0000 
Pxy      =         0.0000 Pxz      =         0.0000 Pyz      =         0.0000 
Lx       =        15.0000 Ly       =        15.0000 Lz       =       255.0510 
---------------- Step      137 ----- CPU =     14.1938 (sec) ----------------
TotEng   =         0.0000 PotEng   =         0.0000 KinEng   =         0.0000 
Temp     =         0.0000 E_vdwl   =         0.0000 Press    =         0.0000 
Pxx      =         0.0000 Pyy      =         0.0000 Pzz      =         0.0000 
Pxy      =         0.0000 Pxz      =         0.0000 Pyz      =         0.0000 
Lx       =        15.0000 Ly       =        15.0000 Lz       =       255.0510 
---------------- Step      138 ----- CPU =     14.3230 (sec) ----------------
TotEng   =         0.0000 PotEng   =         0.0000 KinEng   =         0.0000 
Temp     =         0.0000 E_vdwl   =         0.0000 Press    =         0.0000 
Pxx      =         0.0000 Pyy      =         0.0000 Pzz      =         0.0000 
Pxy      =         0.0000 Pxz      =         0.0000 Pyz      =         0.0000 
Lx       =        15.0000 Ly       =        15.0000 Lz       =       255.0510 
---------------- Step      139 ----- CPU =     14.4205 (sec) ----------------
TotEng   =         0.0000 PotEng   =         0.0000 KinEng   =         0.0000 
Temp     =         0.0000 E_vdwl   =         0.0000 Press    =         0.0000 
Pxx      =         0.0000 Pyy      =         0.0000 Pzz      =         0.0000 
Pxy      =         0.0000 Pxz      =         0.0000 Pyz      =         0.0000 
Lx       =        15.0000 Ly       =        15.0000 Lz       =       255.0510 
---------------- Step      140 ----- CPU =     14.5639 (sec) ----------------
TotEng   =         0.0000 PotEng   =         0.0000 KinEng   =         0.0000 
Temp     =         0.0000 E_vdwl   =         0.0000 Press    =         0.0000 
Pxx      =         0.0000 Pyy      =         0.0000 Pzz      =         0.0000 
Pxy      =         0.0000 Pxz      =         0.0000 Pyz      =         0.0000 
Lx       =        15.0000 Ly       =        15.0000 Lz       =       255.0510 
---------------- Step      141 ----- CPU =     14.6850 (sec) ----------------
TotEng   =         0.0000 PotEng   =         0.0000 KinEng   =         0.0000 
Temp     =         0.0000 E_vdwl   =         0.0000 Press    =         0.0000 
Pxx      =         0.0000 Pyy      =         0.0000 Pzz      =         0.0000 
Pxy      =         0.0000 Pxz      =         0.0000 Pyz      =         0.0000 
Lx       =        15.0000 Ly       =        15.0000 Lz       =       255.0510 
---------------- Step      142 ----- CPU =     14.7813 (sec) ----------------
TotEng   =         0.0000 PotEng   =         0.0000 KinEng   =         0.0000 
Temp     =         0.0000 E_vdwl   =         0.0000 Press    =         0.0000 
Pxx      =         0.0000 Pyy      =         0.0000 Pzz      =         0.0000 
Pxy      =         0.0000 Pxz      =         0.0000 Pyz      =         0.0000 
Lx       =        15.0000 Ly       =        15.0000 Lz       =       255.0510 
---------------- Step      143 ----- CPU =     14.8929 (sec) ----------------
TotEng   =         0.0000 PotEng   =         0.0000 KinEng   =         0.0000 
Temp     =         0.0000 E_vdwl   =         0.0000 Press    =         0.0000 
Pxx      =         0.0000 Pyy      =         0.0000 Pzz      =         0.0000 
Pxy      =         0.0000 Pxz      =         0.0000 Pyz      =         0.0000 
Lx       =        15.0000 Ly       =        15.0000 Lz       =       255.0510 
---------------- Step      144 ----- CPU =     15.0600 (sec) ----------------
TotEng   =         0.0000 PotEng   =         0.0000 KinEng   =         0.0000 
Temp     =         0.0000 E_vdwl   =         0.0000 Press    =         0.0000 
Pxx      =         0.0000 Pyy      =         0.0000 Pzz      =         0.0000 
Pxy      =         0.0000 Pxz      =         0.0000 Pyz      =         0.0000 
Lx       =        15.0000 Ly       =        15.0000 Lz       =       255.0510 
---------------- Step      145 ----- CPU =     15.2168 (sec) ----------------
TotEng   =         0.0000 PotEng   =         0.0000 KinEng   =         0.0000 
Temp     =         0.0000 E_vdwl   =         0.0000 Press    =         0.0000 
Pxx      =         0.0000 Pyy      =         0.0000 Pzz      =         0.0000 
Pxy      =         0.0000 Pxz      =         0.0000 Pyz      =         0.0000 
Lx       =        15.0000 Ly       =        15.0000 Lz       =       255.0510 
---------------- Step      146 ----- CPU =     15.3058 (sec) ----------------
TotEng   =         0.0000 PotEng   =         0.0000 KinEng   =         0.0000 
Temp     =         0.0000 E_vdwl   =         0.0000 Press    =         0.0000 
Pxx      =         0.0000 Pyy      =         0.0000 Pzz      =         0.0000 
Pxy      =         0.0000 Pxz      =         0.0000 Pyz      =         0.0000 
Lx       =        15.0000 Ly       =        15.0000 Lz       =       255.0510 
---------------- Step      147 ----- CPU =     15.4145 (sec) ----------------
TotEng   =         0.0000 PotEng   =         0.0000 KinEng   =         0.0000 
Temp     =         0.0000 E_vdwl   =         0.0000 Press    =         0.0000 
Pxx      =         0.0000 Pyy      =         0.0000 Pzz      =         0.0000 
Pxy      =         0.0000 Pxz      =         0.0000 Pyz      =         0.0000 
Lx       =        15.0000 Ly       =        15.0000 Lz       =       255.0510 
---------------- Step      148 ----- CPU =     15.5203 (sec) ----------------
TotEng   =         0.0000 PotEng   =         0.0000 KinEng   =         0.0000 
Temp     =         0.0000 E_vdwl   =         0.0000 Press    =         0.0000 
Pxx      =         0.0000 Pyy      =         0.0000 Pzz      =         0.0000 
Pxy      =         0.0000 Pxz      =         0.0000 Pyz      =         0.0000 
Lx       =        15.0000 Ly       =        15.0000 Lz       =       255.0510 
---------------- Step      149 ----- CPU =     15.6533 (sec) ----------------
TotEng   =         0.0000 PotEng   =         0.0000 KinEng   =         0.0000 
Temp     =         0.0000 E_vdwl   =         0.0000 Press    =         0.0000 
Pxx      =         0.0000 Pyy      =         0.0000 Pzz      =         0.0000 
Pxy      =         0.0000 Pxz      =         0.0000 Pyz      =         0.0000 
Lx       =        15.0000 Ly       =        15.0000 Lz       =       255.0510 
---------------- Step      150 ----- CPU =     15.7734 (sec) ----------------
TotEng   =         0.0000 PotEng   =         0.0000 KinEng   =         0.0000 
Temp     =         0.0000 E_vdwl   =         0.0000 Press    =         0.0000 
Pxx      =         0.0000 Pyy      =         0.0000 Pzz      =         0.0000 
Pxy      =         0.0000 Pxz      =         0.0000 Pyz      =         0.0000 
Lx       =        15.0000 Ly       =        15.0000 Lz       =       255.0510 
---------------- Step      151 ----- CPU =     15.8855 (sec) ----------------
TotEng   =         0.0000 PotEng   =         0.0000 KinEng   =         0.0000 
Temp     =         0.0000 E_vdwl   =         0.0000 Press    =         0.0000 
Pxx      =         0.0000 Pyy      =         0.0000 Pzz      =         0.0000 
Pxy      =         0.0000 Pxz      =         0.0000 Pyz      =         0.0000 
Lx       =        15.0000 Ly       =        15.0000 Lz       =       255.0510 
---------------- Step      152 ----- CPU =     16.0199 (sec) ----------------
TotEng   =         0.0000 PotEng   =         0.0000 KinEng   =         0.0000 
Temp     =         0.0000 E_vdwl   =         0.0000 Press    =         0.0000 
Pxx      =         0.0000 Pyy      =         0.0000 Pzz      =         0.0000 
Pxy      =         0.0000 Pxz      =         0.0000 Pyz      =         0.0000 
Lx       =        15.0000 Ly       =        15.0000 Lz       =       255.0510 
---------------- Step      153 ----- CPU =     16.1554 (sec) ----------------
TotEng   =         0.0000 PotEng   =         0.0000 KinEng   =         0.0000 
Temp     =         0.0000 E_vdwl   =         0.0000 Press    =         0.0000 
Pxx      =         0.0000 Pyy      =         0.0000 Pzz      =         0.0000 
Pxy      =         0.0000 Pxz      =         0.0000 Pyz      =         0.0000 
Lx       =        15.0000 Ly       =        15.0000 Lz       =       255.0510 
---------------- Step      154 ----- CPU =     16.2848 (sec) ----------------
TotEng   =         0.0000 PotEng   =         0.0000 KinEng   =         0.0000 
Temp     =         0.0000 E_vdwl   =         0.0000 Press    =         0.0000 
Pxx      =         0.0000 Pyy      =         0.0000 Pzz      =         0.0000 
Pxy      =         0.0000 Pxz      =         0.0000 Pyz      =         0.0000 
Lx       =        15.0000 Ly       =        15.0000 Lz       =       255.0510 
---------------- Step      155 ----- CPU =     16.3833 (sec) ----------------
TotEng   =         0.0000 PotEng   =         0.0000 KinEng   =         0.0000 
Temp     =         0.0000 E_vdwl   =         0.0000 Press    =         0.0000 
Pxx      =         0.0000 Pyy      =         0.0000 Pzz      =         0.0000 
Pxy      =         0.0000 Pxz      =         0.0000 Pyz      =         0.0000 
Lx       =        15.0000 Ly       =        15.0000 Lz       =       255.0510 
---------------- Step      156 ----- CPU =     16.5114 (sec) ----------------
TotEng   =         0.0000 PotEng   =         0.0000 KinEng   =         0.0000 
Temp     =         0.0000 E_vdwl   =         0.0000 Press    =         0.0000 
Pxx      =         0.0000 Pyy      =         0.0000 Pzz      =         0.0000 
Pxy      =         0.0000 Pxz      =         0.0000 Pyz      =         0.0000 
Lx       =        15.0000 Ly       =        15.0000 Lz       =       255.0510 
---------------- Step      157 ----- CPU =     16.6362 (sec) ----------------
TotEng   =         0.0000 PotEng   =         0.0000 KinEng   =         0.0000 
Temp     =         0.0000 E_vdwl   =         0.0000 Press    =         0.0000 
Pxx      =         0.0000 Pyy      =         0.0000 Pzz      =         0.0000 
Pxy      =         0.0000 Pxz      =         0.0000 Pyz      =         0.0000 
Lx       =        15.0000 Ly       =        15.0000 Lz       =       255.0510 
---------------- Step      158 ----- CPU =     16.7709 (sec) ----------------
TotEng   =         0.0000 PotEng   =         0.0000 KinEng   =         0.0000 
Temp     =         0.0000 E_vdwl   =         0.0000 Press    =         0.0000 
Pxx      =         0.0000 Pyy      =         0.0000 Pzz      =         0.0000 
Pxy      =         0.0000 Pxz      =         0.0000 Pyz      =         0.0000 
Lx       =        15.0000 Ly       =        15.0000 Lz       =       255.0510 
---------------- Step      159 ----- CPU =     16.8901 (sec) ----------------
TotEng   =         0.0000 PotEng   =         0.0000 KinEng   =         0.0000 
Temp     =         0.0000 E_vdwl   =         0.0000 Press    =         0.0000 
Pxx      =         0.0000 Pyy      =         0.0000 Pzz      =         0.0000 
Pxy      =         0.0000 Pxz      =         0.0000 Pyz      =         0.0000 
Lx       =        15.0000 Ly       =        15.0000 Lz       =       255.0510 
---------------- Step      160 ----- CPU =     17.0370 (sec) ----------------
TotEng   =         0.0000 PotEng   =         0.0000 KinEng   =         0.0000 
Temp     =         0.0000 E_vdwl   =         0.0000 Press    =         0.0000 
Pxx      =         0.0000 Pyy      =         0.0000 Pzz      =         0.0000 
Pxy      =         0.0000 Pxz      =         0.0000 Pyz      =         0.0000 
Lx       =        15.0000 Ly       =        15.0000 Lz       =       255.0510 
---------------- Step      161 ----- CPU =     17.1372 (sec) ----------------
TotEng   =         0.0000 PotEng   =         0.0000 KinEng   =         0.0000 
Temp     =         0.0000 E_vdwl   =         0.0000 Press    =         0.0000 
Pxx      =         0.0000 Pyy      =         0.0000 Pzz      =         0.0000 
Pxy      =         0.0000 Pxz      =         0.0000 Pyz      =         0.0000 
Lx       =        15.0000 Ly       =        15.0000 Lz       =       255.0510 
---------------- Step      162 ----- CPU =     17.2473 (sec) ----------------
TotEng   =         0.0000 PotEng   =         0.0000 KinEng   =         0.0000 
Temp     =         0.0000 E_vdwl   =         0.0000 Press    =         0.0000 
Pxx      =         0.0000 Pyy      =         0.0000 Pzz      =         0.0000 
Pxy      =         0.0000 Pxz      =         0.0000 Pyz      =         0.0000 
Lx       =        15.0000 Ly       =        15.0000 Lz       =       255.0510 
---------------- Step      163 ----- CPU =     17.3482 (sec) ----------------
TotEng   =         0.0000 PotEng   =         0.0000 KinEng   =         0.0000 
Temp     =         0.0000 E_vdwl   =         0.0000 Press    =         0.0000 
Pxx      =         0.0000 Pyy      =         0.0000 Pzz      =         0.0000 
Pxy      =         0.0000 Pxz      =         0.0000 Pyz      =         0.0000 
Lx       =        15.0000 Ly       =        15.0000 Lz       =       255.0510 
---------------- Step      164 ----- CPU =     17.4535 (sec) ----------------
TotEng   =         0.0000 PotEng   =         0.0000 KinEng   =         0.0000 
Temp     =         0.0000 E_vdwl   =         0.0000 Press    =         0.0000 
Pxx      =         0.0000 Pyy      =         0.0000 Pzz      =         0.0000 
Pxy      =         0.0000 Pxz      =         0.0000 Pyz      =         0.0000 
Lx       =        15.0000 Ly       =        15.0000 Lz       =       255.0510 
---------------- Step      165 ----- CPU =     17.5682 (sec) ----------------
TotEng   =         0.0000 PotEng   =         0.0000 KinEng   =         0.0000 
Temp     =         0.0000 E_vdwl   =         0.0000 Press    =         0.0000 
Pxx      =         0.0000 Pyy      =         0.0000 Pzz      =         0.0000 
Pxy      =         0.0000 Pxz      =         0.0000 Pyz      =         0.0000 
Lx       =        15.0000 Ly       =        15.0000 Lz       =       255.0510 
---------------- Step      166 ----- CPU =     17.6994 (sec) ----------------
TotEng   =         0.0000 PotEng   =         0.0000 KinEng   =         0.0000 
Temp     =         0.0000 E_vdwl   =         0.0000 Press    =         0.0000 
Pxx      =         0.0000 Pyy      =         0.0000 Pzz      =         0.0000 
Pxy      =         0.0000 Pxz      =         0.0000 Pyz      =         0.0000 
Lx       =        15.0000 Ly       =        15.0000 Lz       =       255.0510 
---------------- Step      167 ----- CPU =     17.8173 (sec) ----------------
TotEng   =         0.0000 PotEng   =         0.0000 KinEng   =         0.0000 
Temp     =         0.0000 E_vdwl   =         0.0000 Press    =         0.0000 
Pxx      =         0.0000 Pyy      =         0.0000 Pzz      =         0.0000 
Pxy      =         0.0000 Pxz      =         0.0000 Pyz      =         0.0000 
Lx       =        15.0000 Ly       =        15.0000 Lz       =       255.0510 
---------------- Step      168 ----- CPU =     17.9370 (sec) ----------------
TotEng   =         0.0000 PotEng   =         0.0000 KinEng   =         0.0000 
Temp     =         0.0000 E_vdwl   =         0.0000 Press    =         0.0000 
Pxx      =         0.0000 Pyy      =         0.0000 Pzz      =         0.0000 
Pxy      =         0.0000 Pxz      =         0.0000 Pyz      =         0.0000 
Lx       =        15.0000 Ly       =        15.0000 Lz       =       255.0510 
---------------- Step      169 ----- CPU =     18.0454 (sec) ----------------
TotEng   =         0.0000 PotEng   =         0.0000 KinEng   =         0.0000 
Temp     =         0.0000 E_vdwl   =         0.0000 Press    =         0.0000 
Pxx      =         0.0000 Pyy      =         0.0000 Pzz      =         0.0000 
Pxy      =         0.0000 Pxz      =         0.0000 Pyz      =         0.0000 
Lx       =        15.0000 Ly       =        15.0000 Lz       =       255.0510 
---------------- Step      170 ----- CPU =     18.1682 (sec) ----------------
TotEng   =         0.0000 PotEng   =         0.0000 KinEng   =         0.0000 
Temp     =         0.0000 E_vdwl   =         0.0000 Press    =         0.0000 
Pxx      =         0.0000 Pyy      =         0.0000 Pzz      =         0.0000 
Pxy      =         0.0000 Pxz      =         0.0000 Pyz      =         0.0000 
Lx       =        15.0000 Ly       =        15.0000 Lz       =       255.0510 
---------------- Step      171 ----- CPU =     18.3029 (sec) ----------------
TotEng   =         0.0000 PotEng   =         0.0000 KinEng   =         0.0000 
Temp     =         0.0000 E_vdwl   =         0.0000 Press    =         0.0000 
Pxx      =         0.0000 Pyy      =         0.0000 Pzz      =         0.0000 
Pxy      =         0.0000 Pxz      =         0.0000 Pyz      =         0.0000 
Lx       =        15.0000 Ly       =        15.0000 Lz       =       255.0510 
---------------- Step      172 ----- CPU =     18.4006 (sec) ----------------
TotEng   =         0.0000 PotEng   =         0.0000 KinEng   =         0.0000 
Temp     =         0.0000 E_vdwl   =         0.0000 Press    =         0.0000 
Pxx      =         0.0000 Pyy      =         0.0000 Pzz      =         0.0000 
Pxy      =         0.0000 Pxz      =         0.0000 Pyz      =         0.0000 
Lx       =        15.0000 Ly       =        15.0000 Lz       =       255.0510 
---------------- Step      173 ----- CPU =     18.5592 (sec) ----------------
TotEng   =         0.0000 PotEng   =         0.0000 KinEng   =         0.0000 
Temp     =         0.0000 E_vdwl   =         0.0000 Press    =         0.0000 
Pxx      =         0.0000 Pyy      =         0.0000 Pzz      =         0.0000 
Pxy      =         0.0000 Pxz      =         0.0000 Pyz      =         0.0000 
Lx       =        15.0000 Ly       =        15.0000 Lz       =       255.0510 
---------------- Step      174 ----- CPU =     18.7005 (sec) ----------------
TotEng   =         0.0000 PotEng   =         0.0000 KinEng   =         0.0000 
Temp     =         0.0000 E_vdwl   =         0.0000 Press    =         0.0000 
Pxx      =         0.0000 Pyy      =         0.0000 Pzz      =         0.0000 
Pxy      =         0.0000 Pxz      =         0.0000 Pyz      =         0.0000 
Lx       =        15.0000 Ly       =        15.0000 Lz       =       255.0510 
---------------- Step      175 ----- CPU =     18.8280 (sec) ----------------
TotEng   =         0.0000 PotEng   =         0.0000 KinEng   =         0.0000 
Temp     =         0.0000 E_vdwl   =         0.0000 Press    =         0.0000 
Pxx      =         0.0000 Pyy      =         0.0000 Pzz      =         0.0000 
Pxy      =         0.0000 Pxz      =         0.0000 Pyz      =         0.0000 
Lx       =        15.0000 Ly       =        15.0000 Lz       =       255.0510 
---------------- Step      176 ----- CPU =     18.9098 (sec) ----------------
TotEng   =         0.0000 PotEng   =         0.0000 KinEng   =         0.0000 
Temp     =         0.0000 E_vdwl   =         0.0000 Press    =         0.0000 
Pxx      =         0.0000 Pyy      =         0.0000 Pzz      =         0.0000 
Pxy      =         0.0000 Pxz      =         0.0000 Pyz      =         0.0000 
Lx       =        15.0000 Ly       =        15.0000 Lz       =       255.0510 
---------------- Step      177 ----- CPU =     19.0189 (sec) ----------------
TotEng   =         0.0000 PotEng   =         0.0000 KinEng   =         0.0000 
Temp     =         0.0000 E_vdwl   =         0.0000 Press    =         0.0000 
Pxx      =         0.0000 Pyy      =         0.0000 Pzz      =         0.0000 
Pxy      =         0.0000 Pxz      =         0.0000 Pyz      =         0.0000 
Lx       =        15.0000 Ly       =        15.0000 Lz       =       255.0510 
---------------- Step      178 ----- CPU =     19.1366 (sec) ----------------
TotEng   =         0.0000 PotEng   =         0.0000 KinEng   =         0.0000 
Temp     =         0.0000 E_vdwl   =         0.0000 Press    =         0.0000 
Pxx      =         0.0000 Pyy      =         0.0000 Pzz      =         0.0000 
Pxy      =         0.0000 Pxz      =         0.0000 Pyz      =         0.0000 
Lx       =        15.0000 Ly       =        15.0000 Lz       =       255.0510 
---------------- Step      179 ----- CPU =     19.2368 (sec) ----------------
TotEng   =         0.0000 PotEng   =         0.0000 KinEng   =         0.0000 
Temp     =         0.0000 E_vdwl   =         0.0000 Press    =         0.0000 
Pxx      =         0.0000 Pyy      =         0.0000 Pzz      =         0.0000 
Pxy      =         0.0000 Pxz      =         0.0000 Pyz      =         0.0000 
Lx       =        15.0000 Ly       =        15.0000 Lz       =       255.0510 
---------------- Step      180 ----- CPU =     19.3298 (sec) ----------------
TotEng   =         0.0000 PotEng   =         0.0000 KinEng   =         0.0000 
Temp     =         0.0000 E_vdwl   =         0.0000 Press    =         0.0000 
Pxx      =         0.0000 Pyy      =         0.0000 Pzz      =         0.0000 
Pxy      =         0.0000 Pxz      =         0.0000 Pyz      =         0.0000 
Lx       =        15.0000 Ly       =        15.0000 Lz       =       255.0510 
---------------- Step      181 ----- CPU =     19.4280 (sec) ----------------
TotEng   =         0.0000 PotEng   =         0.0000 KinEng   =         0.0000 
Temp     =         0.0000 E_vdwl   =         0.0000 Press    =         0.0000 
Pxx      =         0.0000 Pyy      =         0.0000 Pzz      =         0.0000 
Pxy      =         0.0000 Pxz      =         0.0000 Pyz      =         0.0000 
Lx       =        15.0000 Ly       =        15.0000 Lz       =       255.0510 
---------------- Step      182 ----- CPU =     19.5573 (sec) ----------------
TotEng   =         0.0000 PotEng   =         0.0000 KinEng   =         0.0000 
Temp     =         0.0000 E_vdwl   =         0.0000 Press    =         0.0000 
Pxx      =         0.0000 Pyy      =         0.0000 Pzz      =         0.0000 
Pxy      =         0.0000 Pxz      =         0.0000 Pyz      =         0.0000 
Lx       =        15.0000 Ly       =        15.0000 Lz       =       255.0510 
---------------- Step      183 ----- CPU =     19.6764 (sec) ----------------
TotEng   =         0.0000 PotEng   =         0.0000 KinEng   =         0.0000 
Temp     =         0.0000 E_vdwl   =         0.0000 Press    =         0.0000 
Pxx      =         0.0000 Pyy      =         0.0000 Pzz      =         0.0000 
Pxy      =         0.0000 Pxz      =         0.0000 Pyz      =         0.0000 
Lx       =        15.0000 Ly       =        15.0000 Lz       =       255.0510 
---------------- Step      184 ----- CPU =     19.8229 (sec) ----------------
TotEng   =         0.0000 PotEng   =         0.0000 KinEng   =         0.0000 
Temp     =         0.0000 E_vdwl   =         0.0000 Press    =         0.0000 
Pxx      =         0.0000 Pyy      =         0.0000 Pzz      =         0.0000 
Pxy      =         0.0000 Pxz      =         0.0000 Pyz      =         0.0000 
Lx       =        15.0000 Ly       =        15.0000 Lz       =       255.0510 
---------------- Step      185 ----- CPU =     19.9890 (sec) ----------------
TotEng   =         0.0000 PotEng   =         0.0000 KinEng   =         0.0000 
Temp     =         0.0000 E_vdwl   =         0.0000 Press    =         0.0000 
Pxx      =         0.0000 Pyy      =         0.0000 Pzz      =         0.0000 
Pxy      =         0.0000 Pxz      =         0.0000 Pyz      =         0.0000 
Lx       =        15.0000 Ly       =        15.0000 Lz       =       255.0510 
---------------- Step      186 ----- CPU =     20.1317 (sec) ----------------
TotEng   =         0.0000 PotEng   =         0.0000 KinEng   =         0.0000 
Temp     =         0.0000 E_vdwl   =         0.0000 Press    =         0.0000 
Pxx      =         0.0000 Pyy      =         0.0000 Pzz      =         0.0000 
Pxy      =         0.0000 Pxz      =         0.0000 Pyz      =         0.0000 
Lx       =        15.0000 Ly       =        15.0000 Lz       =       255.0510 
---------------- Step      187 ----- CPU =     20.2153 (sec) ----------------
TotEng   =         0.0000 PotEng   =         0.0000 KinEng   =         0.0000 
Temp     =         0.0000 E_vdwl   =         0.0000 Press    =         0.0000 
Pxx      =         0.0000 Pyy      =         0.0000 Pzz      =         0.0000 
Pxy      =         0.0000 Pxz      =         0.0000 Pyz      =         0.0000 
Lx       =        15.0000 Ly       =        15.0000 Lz       =       255.0510 
---------------- Step      188 ----- CPU =     20.3033 (sec) ----------------
TotEng   =         0.0000 PotEng   =         0.0000 KinEng   =         0.0000 
Temp     =         0.0000 E_vdwl   =         0.0000 Press    =         0.0000 
Pxx      =         0.0000 Pyy      =         0.0000 Pzz      =         0.0000 
Pxy      =         0.0000 Pxz      =         0.0000 Pyz      =         0.0000 
Lx       =        15.0000 Ly       =        15.0000 Lz       =       255.0510 
---------------- Step      189 ----- CPU =     20.4155 (sec) ----------------
TotEng   =         0.0000 PotEng   =         0.0000 KinEng   =         0.0000 
Temp     =         0.0000 E_vdwl   =         0.0000 Press    =         0.0000 
Pxx      =         0.0000 Pyy      =         0.0000 Pzz      =         0.0000 
Pxy      =         0.0000 Pxz      =         0.0000 Pyz      =         0.0000 
Lx       =        15.0000 Ly       =        15.0000 Lz       =       255.0510 
---------------- Step      190 ----- CPU =     20.5162 (sec) ----------------
TotEng   =         0.0000 PotEng   =         0.0000 KinEng   =         0.0000 
Temp     =         0.0000 E_vdwl   =         0.0000 Press    =         0.0000 
Pxx      =         0.0000 Pyy      =         0.0000 Pzz      =         0.0000 
Pxy      =         0.0000 Pxz      =         0.0000 Pyz      =         0.0000 
Lx       =        15.0000 Ly       =        15.0000 Lz       =       255.0510 
---------------- Step      191 ----- CPU =     20.6241 (sec) ----------------
TotEng   =         0.0000 PotEng   =         0.0000 KinEng   =         0.0000 
Temp     =         0.0000 E_vdwl   =         0.0000 Press    =         0.0000 
Pxx      =         0.0000 Pyy      =         0.0000 Pzz      =         0.0000 
Pxy      =         0.0000 Pxz      =         0.0000 Pyz      =         0.0000 
Lx       =        15.0000 Ly       =        15.0000 Lz       =       255.0510 
---------------- Step      192 ----- CPU =     20.7476 (sec) ----------------
TotEng   =         0.0000 PotEng   =         0.0000 KinEng   =         0.0000 
Temp     =         0.0000 E_vdwl   =         0.0000 Press    =         0.0000 
Pxx      =         0.0000 Pyy      =         0.0000 Pzz      =         0.0000 
Pxy      =         0.0000 Pxz      =         0.0000 Pyz      =         0.0000 
Lx       =        15.0000 Ly       =        15.0000 Lz       =       255.0510 
---------------- Step      193 ----- CPU =     20.8775 (sec) ----------------
TotEng   =         0.0000 PotEng   =         0.0000 KinEng   =         0.0000 
Temp     =         0.0000 E_vdwl   =         0.0000 Press    =         0.0000 
Pxx      =         0.0000 Pyy      =         0.0000 Pzz      =         0.0000 
Pxy      =         0.0000 Pxz      =         0.0000 Pyz      =         0.0000 
Lx       =        15.0000 Ly       =        15.0000 Lz       =       255.0510 
---------------- Step      194 ----- CPU =     20.9984 (sec) ----------------
TotEng   =         0.0000 PotEng   =         0.0000 KinEng   =         0.0000 
Temp     =         0.0000 E_vdwl   =         0.0000 Press    =         0.0000 
Pxx      =         0.0000 Pyy      =         0.0000 Pzz      =         0.0000 
Pxy      =         0.0000 Pxz      =         0.0000 Pyz      =         0.0000 
Lx       =        15.0000 Ly       =        15.0000 Lz       =       255.0510 
---------------- Step      195 ----- CPU =     21.1284 (sec) ----------------
TotEng   =         0.0000 PotEng   =         0.0000 KinEng   =         0.0000 
Temp     =         0.0000 E_vdwl   =         0.0000 Press    =         0.0000 
Pxx      =         0.0000 Pyy      =         0.0000 Pzz      =         0.0000 
Pxy      =         0.0000 Pxz      =         0.0000 Pyz      =         0.0000 
Lx       =        15.0000 Ly       =        15.0000 Lz       =       255.0510 
---------------- Step      196 ----- CPU =     21.2381 (sec) ----------------
TotEng   =         0.0000 PotEng   =         0.0000 KinEng   =         0.0000 
Temp     =         0.0000 E_vdwl   =         0.0000 Press    =         0.0000 
Pxx      =         0.0000 Pyy      =         0.0000 Pzz      =         0.0000 
Pxy      =         0.0000 Pxz      =         0.0000 Pyz      =         0.0000 
Lx       =        15.0000 Ly       =        15.0000 Lz       =       255.0510 
---------------- Step      197 ----- CPU =     21.3830 (sec) ----------------
TotEng   =         0.0000 PotEng   =         0.0000 KinEng   =         0.0000 
Temp     =         0.0000 E_vdwl   =         0.0000 Press    =         0.0000 
Pxx      =         0.0000 Pyy      =         0.0000 Pzz      =         0.0000 
Pxy      =         0.0000 Pxz      =         0.0000 Pyz      =         0.0000 
Lx       =        15.0000 Ly       =        15.0000 Lz       =       255.0510 
---------------- Step      198 ----- CPU =     21.4830 (sec) ----------------
TotEng   =         0.0000 PotEng   =         0.0000 KinEng   =         0.0000 
Temp     =         0.0000 E_vdwl   =         0.0000 Press    =         0.0000 
Pxx      =         0.0000 Pyy      =         0.0000 Pzz      =         0.0000 
Pxy      =         0.0000 Pxz      =         0.0000 Pyz      =         0.0000 
Lx       =        15.0000 Ly       =        15.0000 Lz       =       255.0510 
---------------- Step      199 ----- CPU =     21.5994 (sec) ----------------
TotEng   =         0.0000 PotEng   =         0.0000 KinEng   =         0.0000 
Temp     =         0.0000 E_vdwl   =         0.0000 Press    =         0.0000 
Pxx      =         0.0000 Pyy      =         0.0000 Pzz      =         0.0000 
Pxy      =         0.0000 Pxz      =         0.0000 Pyz      =         0.0000 
Lx       =        15.0000 Ly       =        15.0000 Lz       =       255.0510 
---------------- Step      200 ----- CPU =     21.7517 (sec) ----------------
TotEng   =         0.0000 PotEng   =         0.0000 KinEng   =         0.0000 
Temp     =         0.0000 E_vdwl   =         0.0000 Press    =         0.0000 
Pxx      =         0.0000 Pyy      =         0.0000 Pzz      =         0.0000 
Pxy      =         0.0000 Pxz      =         0.0000 Pyz      =         0.0000 
Lx       =        15.0000 Ly       =        15.0000 Lz       =       255.0510 
Loop time of 21.7517 on 1 procs for 200 steps with 4050 atoms

Performance: 0.397 ns/day, 60.421 hours/ns, 9.195 timesteps/s
99.1% CPU use with 1 MPI tasks x no OpenMP threads

MPI task timing breakdown:
Section |  min time  |  avg time  |  max time  |%varavg| %total
---------------------------------------------------------------
Pair    | 0.010691   | 0.010691   | 0.010691   |   0.0 |  0.05
Bond    | 4.4584e-05 | 4.4584e-05 | 4.4584e-05 |   0.0 |  0.00
Neigh   | 0          | 0          | 0          |   0.0 |  0.00
Comm    | 0.0063336  | 0.0063336  | 0.0063336  |   0.0 |  0.03
Output  | 0.080907   | 0.080907   | 0.080907   |   0.0 |  0.37
Modify  | 21.65      | 21.65      | 21.65      |   0.0 | 99.53
Other   |            | 0.00408    |            |       |  0.02

Nlocal:    4050 ave 4050 max 4050 min
Histogram: 1 0 0 0 0 0 0 0 0 0
Nghost:    5118 ave 5118 max 5118 min
Histogram: 1 0 0 0 0 0 0 0 0 0
Neighs:    28050 ave 28050 max 28050 min
Histogram: 1 0 0 0 0 0 0 0 0 0
FullNghs:  54480 ave 54480 max 54480 min
Histogram: 1 0 0 0 0 0 0 0 0 0

Total # of neighbors = 54480
Ave neighs/atom = 13.4519
Ave special neighs/atom = 0
Neighbor list builds = 0
Dangerous builds = 0

Please see the log.cite file for references relevant to this simulation

Total wall time: 0:00:21
