LAMMPS (22 Aug 2018)
# Example of the 2-contacts example from J. Chem. Phys. 143, 054109 (2015)
# Here with LiS electrodes
units          real
atom_style     full
boundary       p p s

lattice        custom 3.0 a1 1.0 0.0 0.0 a2 0.0 1.0 0.0 a3 0.0 0.0 1.0                basis 0.0 0.0 0.0 basis 0.5 0.5 0.5
Lattice spacing in x,y,z = 3 3 3
region         boxl block 0 5 0 5 0 40 units lattice
region         boxr block 0 5 0 5 45 85 units lattice
region         box block 0 5 0 5 0 85 units lattice
create_box     2 box
Created orthogonal box = (0 0 0) to (15 15 255)
  1 by 1 by 4 MPI processor grid
create_atoms   1 region boxl basis 1 1 basis 2 2
Created 2025 atoms
  Time spent = 0.00335002 secs
create_atoms   2 region boxr basis 1 1 basis 2 2
Created 2025 atoms
  Time spent = 0.00100017 secs

pair_style     reax/c NULL checkqeq yes
pair_coeff     * * ffield Li S

#kspace_style   pppm 1.0e-4

group          Li type 1
2050 atoms in group Li
group          S type 2
2000 atoms in group S
group          LiS type 1 2
4050 atoms in group LiS
mass           1 6.9410
mass           2 32.0600

timestep       0.5

thermo_style   custom etotal pe ke temp evdwl press pxx pyy pzz pxy pxz pyz lx ly lz
thermo_modify  line multi flush yes
thermo         1

variable       ti equal 1.0

variable       z1min equal bound(LiS,zmin)
variable       z1max equal ${z1min}+4.0
variable       z1max equal 0+4.0
variable       z2max equal bound(LiS,zmax)
variable       z2min equal ${z2max}-4.0
variable       z2min equal 255-4.0

# Initialize the property
fix            0 all property/atom d_locpot d_lap
compute        0 all property/atom d_locpot d_lap

# Boundary conditions regions
region         bound1 block INF INF INF INF ${z1min} ${z1max} units box
region         bound1 block INF INF INF INF 0 ${z1max} units box
region         bound1 block INF INF INF INF 0 4 units box
group          z_left region bound1
75 atoms in group z_left
region         bound2 block INF INF INF INF ${z2min} ${z2max} units box
region         bound2 block INF INF INF INF 251 ${z2max} units box
region         bound2 block INF INF INF INF 251 255 units box
group          z_right region bound2
75 atoms in group z_right

dump           1 all custom 20 traj.dump id type x y z q c_0[1] c_0[2]

#fix            1 all qeq/reax 1 0.0 10.0 1.0e-6 param.qeq
fix            1 all qeq/shielded 1 10.0 1.0e-6 1000 param.qeq
fix            2 all echemdid 1 k 6.0 rc 4.0 norm 0.629967 nelec 10 z_left z_right volt 8.0
run            200
Neighbor list info ...
  update every 1 steps, delay 10 steps, check yes
  max neighbors/atom: 2000, page size: 100000
  master list distance cutoff = 12
  ghost atom cutoff = 12
  binsize = 6, bins = 3 3 43
  3 neighbor lists, perpetual/occasional/extra = 3 0 0
  (1) fix echemdid, perpetual, half/full from (3)
      attributes: half, newton on
      pair build: halffull/newton
      stencil: none
      bin: none
  (2) pair reax/c, perpetual
      attributes: half, newton off, ghost
      pair build: half/bin/newtoff/ghost
      stencil: half/ghost/bin/3d/newtoff
      bin: standard
  (3) fix qeq/shielded, perpetual
      attributes: full, newton on
      pair build: full/bin
      stencil: full/bin/3d
      bin: standard
Per MPI rank memory allocation (min/avg/max) = 255.6 | 261 | 266.5 Mbytes
---------------- Step        0 ----- CPU =      0.0000 (sec) ----------------
TotEng   =   -289272.3334 PotEng   =   -289272.3334 KinEng   =         0.0000 
Temp     =         0.0000 E_vdwl   =   -181427.4894 Press    =      5500.4615 
Pxx      =      6228.6141 Pyy      =      6228.6141 Pzz      =      4044.1562 
Pxy      =        -0.0000 Pxz      =         0.0000 Pyz      =        -0.0000 
Lx       =        15.0000 Ly       =        15.0000 Lz       =       255.0510 
---------------- Step        1 ----- CPU =      0.7928 (sec) ----------------
TotEng   =   -289025.1975 PotEng   =   -289025.1975 KinEng   =         0.0000 
Temp     =         0.0000 E_vdwl   =   -181427.4894 Press    =      5698.8929 
Pxx      =      6488.7266 Pyy      =      6488.7266 Pzz      =      4119.2256 
Pxy      =         0.0000 Pxz      =        -0.0000 Pyz      =         0.0000 
Lx       =        15.0000 Ly       =        15.0000 Lz       =       255.0510 
---------------- Step        2 ----- CPU =      1.5669 (sec) ----------------
TotEng   =   -289022.1618 PotEng   =   -289022.1618 KinEng   =         0.0000 
Temp     =         0.0000 E_vdwl   =   -181427.4894 Press    =      5721.8880 
Pxx      =      6498.0677 Pyy      =      6498.0677 Pzz      =      4169.5285 
Pxy      =         0.0000 Pxz      =        -0.0000 Pyz      =         0.0000 
Lx       =        15.0000 Ly       =        15.0000 Lz       =       255.0510 
---------------- Step        3 ----- CPU =      2.3017 (sec) ----------------
TotEng   =   -289014.8172 PotEng   =   -289014.8172 KinEng   =         0.0000 
Temp     =         0.0000 E_vdwl   =   -181427.4894 Press    =      5737.1766 
Pxx      =      6507.8587 Pyy      =      6507.8587 Pzz      =      4195.8123 
Pxy      =        -0.0000 Pxz      =         0.0000 Pyz      =         0.0000 
Lx       =        15.0000 Ly       =        15.0000 Lz       =       255.0510 
---------------- Step        4 ----- CPU =      3.0124 (sec) ----------------
TotEng   =   -289007.1580 PotEng   =   -289007.1580 KinEng   =         0.0000 
Temp     =         0.0000 E_vdwl   =   -181427.4894 Press    =      5749.4192 
Pxx      =      6517.1593 Pyy      =      6517.1593 Pzz      =      4213.9391 
Pxy      =        -0.0000 Pxz      =        -0.0000 Pyz      =        -0.0000 
Lx       =        15.0000 Ly       =        15.0000 Lz       =       255.0510 
---------------- Step        5 ----- CPU =      3.7246 (sec) ----------------
TotEng   =   -288999.7799 PotEng   =   -288999.7799 KinEng   =         0.0000 
Temp     =         0.0000 E_vdwl   =   -181427.4894 Press    =      5759.9794 
Pxx      =      6525.8648 Pyy      =      6525.8648 Pzz      =      4228.2088 
Pxy      =         0.0000 Pxz      =         0.0000 Pyz      =         0.0000 
Lx       =        15.0000 Ly       =        15.0000 Lz       =       255.0510 
---------------- Step        6 ----- CPU =      4.4493 (sec) ----------------
TotEng   =   -288992.7813 PotEng   =   -288992.7813 KinEng   =         0.0000 
Temp     =         0.0000 E_vdwl   =   -181427.4894 Press    =      5769.4100 
Pxx      =      6534.0050 Pyy      =      6534.0050 Pzz      =      4240.2200 
Pxy      =         0.0000 Pxz      =        -0.0000 Pyz      =         0.0000 
Lx       =        15.0000 Ly       =        15.0000 Lz       =       255.0510 
---------------- Step        7 ----- CPU =      5.1654 (sec) ----------------
TotEng   =   -288986.1468 PotEng   =   -288986.1468 KinEng   =         0.0000 
Temp     =         0.0000 E_vdwl   =   -181427.4894 Press    =      5778.0149 
Pxx      =      6541.6524 Pyy      =      6541.6524 Pzz      =      4250.7397 
Pxy      =        -0.0000 Pxz      =         0.0000 Pyz      =         0.0000 
Lx       =        15.0000 Ly       =        15.0000 Lz       =       255.0510 
---------------- Step        8 ----- CPU =      5.8807 (sec) ----------------
TotEng   =   -288979.8493 PotEng   =   -288979.8493 KinEng   =         0.0000 
Temp     =         0.0000 E_vdwl   =   -181427.4894 Press    =      5785.9763 
Pxx      =      6548.8684 Pyy      =      6548.8684 Pzz      =      4260.1920 
Pxy      =        -0.0000 Pxz      =         0.0000 Pyz      =        -0.0000 
Lx       =        15.0000 Ly       =        15.0000 Lz       =       255.0510 
---------------- Step        9 ----- CPU =      6.5282 (sec) ----------------
TotEng   =   -288973.8427 PotEng   =   -288973.8427 KinEng   =         0.0000 
Temp     =         0.0000 E_vdwl   =   -181427.4894 Press    =      5793.4343 
Pxx      =      6555.7275 Pyy      =      6555.7275 Pzz      =      4268.8480 
Pxy      =         0.0000 Pxz      =         0.0000 Pyz      =        -0.0000 
Lx       =        15.0000 Ly       =        15.0000 Lz       =       255.0510 
---------------- Step       10 ----- CPU =      7.1776 (sec) ----------------
TotEng   =   -288968.0981 PotEng   =   -288968.0981 KinEng   =         0.0000 
Temp     =         0.0000 E_vdwl   =   -181427.4894 Press    =      5800.4988 
Pxx      =      6562.2967 Pyy      =      6562.2967 Pzz      =      4276.9030 
Pxy      =        -0.0000 Pxz      =         0.0000 Pyz      =         0.0000 
Lx       =        15.0000 Ly       =        15.0000 Lz       =       255.0510 
---------------- Step       11 ----- CPU =      7.7943 (sec) ----------------
TotEng   =   -288962.5852 PotEng   =   -288962.5852 KinEng   =         0.0000 
Temp     =         0.0000 E_vdwl   =   -181427.4894 Press    =      5807.2380 
Pxx      =      6568.6160 Pyy      =      6568.6160 Pzz      =      4284.4821 
Pxy      =        -0.0000 Pxz      =        -0.0000 Pyz      =        -0.0000 
Lx       =        15.0000 Ly       =        15.0000 Lz       =       255.0510 
---------------- Step       12 ----- CPU =      8.4605 (sec) ----------------
TotEng   =   -288957.2819 PotEng   =   -288957.2819 KinEng   =         0.0000 
Temp     =         0.0000 E_vdwl   =   -181427.4894 Press    =      5813.6618 
Pxx      =      6574.6784 Pyy      =      6574.6784 Pzz      =      4291.6285 
Pxy      =         0.0000 Pxz      =         0.0000 Pyz      =         0.0000 
Lx       =        15.0000 Ly       =        15.0000 Lz       =       255.0510 
---------------- Step       13 ----- CPU =      9.2045 (sec) ----------------
TotEng   =   -288952.1677 PotEng   =   -288952.1677 KinEng   =         0.0000 
Temp     =         0.0000 E_vdwl   =   -181427.4894 Press    =      5819.8009 
Pxx      =      6580.5082 Pyy      =      6580.5082 Pzz      =      4298.3863 
Pxy      =         0.0000 Pxz      =        -0.0000 Pyz      =        -0.0000 
Lx       =        15.0000 Ly       =        15.0000 Lz       =       255.0510 
---------------- Step       14 ----- CPU =      9.8417 (sec) ----------------
TotEng   =   -288947.2158 PotEng   =   -288947.2158 KinEng   =         0.0000 
Temp     =         0.0000 E_vdwl   =   -181427.4894 Press    =      5825.7052 
Pxx      =      6586.1408 Pyy      =      6586.1408 Pzz      =      4304.8340 
Pxy      =         0.0000 Pxz      =         0.0000 Pyz      =         0.0000 
Lx       =        15.0000 Ly       =        15.0000 Lz       =       255.0510 
---------------- Step       15 ----- CPU =     10.4963 (sec) ----------------
TotEng   =   -288942.4275 PotEng   =   -288942.4275 KinEng   =         0.0000 
Temp     =         0.0000 E_vdwl   =   -181427.4894 Press    =      5831.3916 
Pxx      =      6591.5831 Pyy      =      6591.5831 Pzz      =      4311.0088 
Pxy      =         0.0000 Pxz      =        -0.0000 Pyz      =         0.0000 
Lx       =        15.0000 Ly       =        15.0000 Lz       =       255.0510 
---------------- Step       16 ----- CPU =     11.2220 (sec) ----------------
TotEng   =   -288937.7732 PotEng   =   -288937.7732 KinEng   =         0.0000 
Temp     =         0.0000 E_vdwl   =   -181427.4894 Press    =      5836.9132 
Pxx      =      6596.8860 Pyy      =      6596.8860 Pzz      =      4316.9674 
Pxy      =         0.0000 Pxz      =         0.0000 Pyz      =         0.0000 
Lx       =        15.0000 Ly       =        15.0000 Lz       =       255.0510 
---------------- Step       17 ----- CPU =     11.8818 (sec) ----------------
TotEng   =   -288933.2579 PotEng   =   -288933.2579 KinEng   =         0.0000 
Temp     =         0.0000 E_vdwl   =   -181427.4894 Press    =      5842.2697 
Pxx      =      6602.0435 Pyy      =      6602.0435 Pzz      =      4322.7222 
Pxy      =        -0.0000 Pxz      =        -0.0000 Pyz      =         0.0000 
Lx       =        15.0000 Ly       =        15.0000 Lz       =       255.0510 
---------------- Step       18 ----- CPU =     12.5075 (sec) ----------------
TotEng   =   -288928.8602 PotEng   =   -288928.8602 KinEng   =         0.0000 
Temp     =         0.0000 E_vdwl   =   -181427.4894 Press    =      5847.4695 
Pxx      =      6607.0652 Pyy      =      6607.0652 Pzz      =      4328.2781 
Pxy      =         0.0000 Pxz      =        -0.0000 Pyz      =        -0.0000 
Lx       =        15.0000 Ly       =        15.0000 Lz       =       255.0510 
---------------- Step       19 ----- CPU =     13.2106 (sec) ----------------
TotEng   =   -288924.5685 PotEng   =   -288924.5685 KinEng   =         0.0000 
Temp     =         0.0000 E_vdwl   =   -181427.4894 Press    =      5852.5245 
Pxx      =      6611.9586 Pyy      =      6611.9586 Pzz      =      4333.6561 
Pxy      =        -0.0000 Pxz      =         0.0000 Pyz      =         0.0000 
Lx       =        15.0000 Ly       =        15.0000 Lz       =       255.0510 
---------------- Step       20 ----- CPU =     13.8831 (sec) ----------------
TotEng   =   -288920.3820 PotEng   =   -288920.3820 KinEng   =         0.0000 
Temp     =         0.0000 E_vdwl   =   -181427.4894 Press    =      5857.4173 
Pxx      =      6616.7050 Pyy      =      6616.7050 Pzz      =      4338.8418 
Pxy      =        -0.0000 Pxz      =        -0.0000 Pyz      =         0.0000 
Lx       =        15.0000 Ly       =        15.0000 Lz       =       255.0510 
---------------- Step       21 ----- CPU =     14.5744 (sec) ----------------
TotEng   =   -288916.2930 PotEng   =   -288916.2930 KinEng   =         0.0000 
Temp     =         0.0000 E_vdwl   =   -181427.4894 Press    =      5862.1845 
Pxx      =      6621.3329 Pyy      =      6621.3329 Pzz      =      4343.8876 
Pxy      =         0.0000 Pxz      =         0.0000 Pyz      =         0.0000 
Lx       =        15.0000 Ly       =        15.0000 Lz       =       255.0510 
---------------- Step       22 ----- CPU =     15.2165 (sec) ----------------
TotEng   =   -288912.2931 PotEng   =   -288912.2931 KinEng   =         0.0000 
Temp     =         0.0000 E_vdwl   =   -181427.4894 Press    =      5866.8617 
Pxx      =      6625.8815 Pyy      =      6625.8815 Pzz      =      4348.8220 
Pxy      =         0.0000 Pxz      =         0.0000 Pyz      =         0.0000 
Lx       =        15.0000 Ly       =        15.0000 Lz       =       255.0510 
---------------- Step       23 ----- CPU =     15.8802 (sec) ----------------
TotEng   =   -288908.3767 PotEng   =   -288908.3767 KinEng   =         0.0000 
Temp     =         0.0000 E_vdwl   =   -181427.4894 Press    =      5871.4559 
Pxx      =      6630.3588 Pyy      =      6630.3588 Pzz      =      4353.6501 
Pxy      =         0.0000 Pxz      =         0.0000 Pyz      =         0.0000 
Lx       =        15.0000 Ly       =        15.0000 Lz       =       255.0510 
---------------- Step       24 ----- CPU =     16.5276 (sec) ----------------
TotEng   =   -288904.5346 PotEng   =   -288904.5346 KinEng   =         0.0000 
Temp     =         0.0000 E_vdwl   =   -181427.4894 Press    =      5875.9720 
Pxx      =      6634.7666 Pyy      =      6634.7666 Pzz      =      4358.3828 
Pxy      =         0.0000 Pxz      =         0.0000 Pyz      =         0.0000 
Lx       =        15.0000 Ly       =        15.0000 Lz       =       255.0510 
---------------- Step       25 ----- CPU =     17.2525 (sec) ----------------
TotEng   =   -288900.7757 PotEng   =   -288900.7757 KinEng   =         0.0000 
Temp     =         0.0000 E_vdwl   =   -181427.4894 Press    =      5880.3316 
Pxx      =      6639.0241 Pyy      =      6639.0241 Pzz      =      4362.9465 
Pxy      =         0.0000 Pxz      =         0.0000 Pyz      =         0.0000 
Lx       =        15.0000 Ly       =        15.0000 Lz       =       255.0510 
---------------- Step       26 ----- CPU =     17.9108 (sec) ----------------
TotEng   =   -288897.0805 PotEng   =   -288897.0805 KinEng   =         0.0000 
Temp     =         0.0000 E_vdwl   =   -181427.4894 Press    =      5884.6081 
Pxx      =      6643.2034 Pyy      =      6643.2034 Pzz      =      4367.4175 
Pxy      =        -0.0000 Pxz      =         0.0000 Pyz      =        -0.0000 
Lx       =        15.0000 Ly       =        15.0000 Lz       =       255.0510 
---------------- Step       27 ----- CPU =     18.5840 (sec) ----------------
TotEng   =   -288893.4604 PotEng   =   -288893.4604 KinEng   =         0.0000 
Temp     =         0.0000 E_vdwl   =   -181427.4894 Press    =      5888.8084 
Pxx      =      6647.3094 Pyy      =      6647.3094 Pzz      =      4371.8063 
Pxy      =         0.0000 Pxz      =         0.0000 Pyz      =        -0.0000 
Lx       =        15.0000 Ly       =        15.0000 Lz       =       255.0510 
---------------- Step       28 ----- CPU =     19.3754 (sec) ----------------
TotEng   =   -288889.8951 PotEng   =   -288889.8951 KinEng   =         0.0000 
Temp     =         0.0000 E_vdwl   =   -181427.4894 Press    =      5892.9625 
Pxx      =      6651.3812 Pyy      =      6651.3812 Pzz      =      4376.1251 
Pxy      =         0.0000 Pxz      =        -0.0000 Pyz      =         0.0000 
Lx       =        15.0000 Ly       =        15.0000 Lz       =       255.0510 
---------------- Step       29 ----- CPU =     20.1721 (sec) ----------------
TotEng   =   -288886.3946 PotEng   =   -288886.3946 KinEng   =         0.0000 
Temp     =         0.0000 E_vdwl   =   -181427.4894 Press    =      5897.0526 
Pxx      =      6655.3924 Pyy      =      6655.3924 Pzz      =      4380.3730 
Pxy      =        -0.0000 Pxz      =         0.0000 Pyz      =        -0.0000 
Lx       =        15.0000 Ly       =        15.0000 Lz       =       255.0510 
---------------- Step       30 ----- CPU =     20.9149 (sec) ----------------
TotEng   =   -288882.9481 PotEng   =   -288882.9481 KinEng   =         0.0000 
Temp     =         0.0000 E_vdwl   =   -181427.4894 Press    =      5901.0709 
Pxx      =      6659.3357 Pyy      =      6659.3357 Pzz      =      4384.5413 
Pxy      =         0.0000 Pxz      =        -0.0000 Pyz      =        -0.0000 
Lx       =        15.0000 Ly       =        15.0000 Lz       =       255.0510 
---------------- Step       31 ----- CPU =     21.5321 (sec) ----------------
TotEng   =   -288879.5547 PotEng   =   -288879.5547 KinEng   =         0.0000 
Temp     =         0.0000 E_vdwl   =   -181427.4894 Press    =      5904.9859 
Pxx      =      6663.1766 Pyy      =      6663.1766 Pzz      =      4388.6047 
Pxy      =         0.0000 Pxz      =         0.0000 Pyz      =        -0.0000 
Lx       =        15.0000 Ly       =        15.0000 Lz       =       255.0510 
---------------- Step       32 ----- CPU =     22.1537 (sec) ----------------
TotEng   =   -288876.2150 PotEng   =   -288876.2150 KinEng   =         0.0000 
Temp     =         0.0000 E_vdwl   =   -181427.4894 Press    =      5908.8077 
Pxx      =      6666.9274 Pyy      =      6666.9274 Pzz      =      4392.5682 
Pxy      =         0.0000 Pxz      =         0.0000 Pyz      =        -0.0000 
Lx       =        15.0000 Ly       =        15.0000 Lz       =       255.0510 
---------------- Step       33 ----- CPU =     22.7919 (sec) ----------------
TotEng   =   -288872.9322 PotEng   =   -288872.9322 KinEng   =         0.0000 
Temp     =         0.0000 E_vdwl   =   -181427.4894 Press    =      5912.6130 
Pxx      =      6670.6704 Pyy      =      6670.6704 Pzz      =      4396.4983 
Pxy      =        -0.0000 Pxz      =         0.0000 Pyz      =         0.0000 
Lx       =        15.0000 Ly       =        15.0000 Lz       =       255.0510 
---------------- Step       34 ----- CPU =     23.4781 (sec) ----------------
TotEng   =   -288869.6890 PotEng   =   -288869.6890 KinEng   =         0.0000 
Temp     =         0.0000 E_vdwl   =   -181427.4894 Press    =      5916.3892 
Pxx      =      6674.3824 Pyy      =      6674.3824 Pzz      =      4400.4028 
Pxy      =         0.0000 Pxz      =         0.0000 Pyz      =         0.0000 
Lx       =        15.0000 Ly       =        15.0000 Lz       =       255.0510 
---------------- Step       35 ----- CPU =     24.1531 (sec) ----------------
TotEng   =   -288866.4988 PotEng   =   -288866.4988 KinEng   =         0.0000 
Temp     =         0.0000 E_vdwl   =   -181427.4894 Press    =      5920.1100 
Pxx      =      6678.0407 Pyy      =      6678.0407 Pzz      =      4404.2486 
Pxy      =         0.0000 Pxz      =        -0.0000 Pyz      =         0.0000 
Lx       =        15.0000 Ly       =        15.0000 Lz       =       255.0510 
---------------- Step       36 ----- CPU =     24.7767 (sec) ----------------
TotEng   =   -288863.3376 PotEng   =   -288863.3376 KinEng   =         0.0000 
Temp     =         0.0000 E_vdwl   =   -181427.4894 Press    =      5923.7426 
Pxx      =      6681.6213 Pyy      =      6681.6213 Pzz      =      4407.9851 
Pxy      =        -0.0000 Pxz      =         0.0000 Pyz      =        -0.0000 
Lx       =        15.0000 Ly       =        15.0000 Lz       =       255.0510 
---------------- Step       37 ----- CPU =     25.5002 (sec) ----------------
TotEng   =   -288860.2309 PotEng   =   -288860.2309 KinEng   =         0.0000 
Temp     =         0.0000 E_vdwl   =   -181427.4894 Press    =      5927.3015 
Pxx      =      6685.1263 Pyy      =      6685.1263 Pzz      =      4411.6518 
Pxy      =        -0.0000 Pxz      =         0.0000 Pyz      =         0.0000 
Lx       =        15.0000 Ly       =        15.0000 Lz       =       255.0510 
---------------- Step       38 ----- CPU =     26.1326 (sec) ----------------
TotEng   =   -288857.1573 PotEng   =   -288857.1573 KinEng   =         0.0000 
Temp     =         0.0000 E_vdwl   =   -181427.4894 Press    =      5930.8188 
Pxx      =      6688.5908 Pyy      =      6688.5908 Pzz      =      4415.2749 
Pxy      =        -0.0000 Pxz      =         0.0000 Pyz      =        -0.0000 
Lx       =        15.0000 Ly       =        15.0000 Lz       =       255.0510 
---------------- Step       39 ----- CPU =     26.8004 (sec) ----------------
TotEng   =   -288854.1300 PotEng   =   -288854.1300 KinEng   =         0.0000 
Temp     =         0.0000 E_vdwl   =   -181427.4894 Press    =      5934.3210 
Pxx      =      6692.0424 Pyy      =      6692.0424 Pzz      =      4418.8782 
Pxy      =         0.0000 Pxz      =         0.0000 Pyz      =         0.0000 
Lx       =        15.0000 Ly       =        15.0000 Lz       =       255.0510 
---------------- Step       40 ----- CPU =     27.4301 (sec) ----------------
TotEng   =   -288851.1327 PotEng   =   -288851.1327 KinEng   =         0.0000 
Temp     =         0.0000 E_vdwl   =   -181427.4894 Press    =      5937.8255 
Pxx      =      6695.5019 Pyy      =      6695.5019 Pzz      =      4422.4728 
Pxy      =        -0.0000 Pxz      =         0.0000 Pyz      =         0.0000 
Lx       =        15.0000 Ly       =        15.0000 Lz       =       255.0510 
---------------- Step       41 ----- CPU =     28.1426 (sec) ----------------
TotEng   =   -288848.1792 PotEng   =   -288848.1792 KinEng   =         0.0000 
Temp     =         0.0000 E_vdwl   =   -181427.4894 Press    =      5941.2488 
Pxx      =      6698.8774 Pyy      =      6698.8774 Pzz      =      4425.9914 
Pxy      =         0.0000 Pxz      =        -0.0000 Pyz      =         0.0000 
Lx       =        15.0000 Ly       =        15.0000 Lz       =       255.0510 
---------------- Step       42 ----- CPU =     28.8019 (sec) ----------------
TotEng   =   -288845.2526 PotEng   =   -288845.2526 KinEng   =         0.0000 
Temp     =         0.0000 E_vdwl   =   -181427.4894 Press    =      5944.5952 
Pxx      =      6702.1793 Pyy      =      6702.1793 Pzz      =      4429.4269 
Pxy      =        -0.0000 Pxz      =         0.0000 Pyz      =         0.0000 
Lx       =        15.0000 Ly       =        15.0000 Lz       =       255.0510 
---------------- Step       43 ----- CPU =     29.4358 (sec) ----------------
TotEng   =   -288842.3654 PotEng   =   -288842.3654 KinEng   =         0.0000 
Temp     =         0.0000 E_vdwl   =   -181427.4894 Press    =      5947.8688 
Pxx      =      6705.4109 Pyy      =      6705.4109 Pzz      =      4432.7846 
Pxy      =         0.0000 Pxz      =         0.0000 Pyz      =        -0.0000 
Lx       =        15.0000 Ly       =        15.0000 Lz       =       255.0510 
---------------- Step       44 ----- CPU =     30.1543 (sec) ----------------
TotEng   =   -288839.5071 PotEng   =   -288839.5071 KinEng   =         0.0000 
Temp     =         0.0000 E_vdwl   =   -181427.4894 Press    =      5951.1838 
Pxx      =      6708.6861 Pyy      =      6708.6861 Pzz      =      4436.1791 
Pxy      =         0.0000 Pxz      =         0.0000 Pyz      =        -0.0000 
Lx       =        15.0000 Ly       =        15.0000 Lz       =       255.0510 
---------------- Step       45 ----- CPU =     30.7892 (sec) ----------------
TotEng   =   -288836.6822 PotEng   =   -288836.6822 KinEng   =         0.0000 
Temp     =         0.0000 E_vdwl   =   -181427.4894 Press    =      5954.4985 
Pxx      =      6711.9590 Pyy      =      6711.9590 Pzz      =      4439.5775 
Pxy      =         0.0000 Pxz      =        -0.0000 Pyz      =         0.0000 
Lx       =        15.0000 Ly       =        15.0000 Lz       =       255.0510 
---------------- Step       46 ----- CPU =     31.4501 (sec) ----------------
TotEng   =   -288833.8880 PotEng   =   -288833.8880 KinEng   =         0.0000 
Temp     =         0.0000 E_vdwl   =   -181427.4894 Press    =      5957.6994 
Pxx      =      6715.1238 Pyy      =      6715.1238 Pzz      =      4442.8508 
Pxy      =        -0.0000 Pxz      =        -0.0000 Pyz      =         0.0000 
Lx       =        15.0000 Ly       =        15.0000 Lz       =       255.0510 
---------------- Step       47 ----- CPU =     32.1563 (sec) ----------------
TotEng   =   -288831.1219 PotEng   =   -288831.1219 KinEng   =         0.0000 
Temp     =         0.0000 E_vdwl   =   -181427.4894 Press    =      5960.8292 
Pxx      =      6718.2177 Pyy      =      6718.2177 Pzz      =      4446.0522 
Pxy      =         0.0000 Pxz      =        -0.0000 Pyz      =        -0.0000 
Lx       =        15.0000 Ly       =        15.0000 Lz       =       255.0510 
---------------- Step       48 ----- CPU =     32.8266 (sec) ----------------
TotEng   =   -288828.3830 PotEng   =   -288828.3830 KinEng   =         0.0000 
Temp     =         0.0000 E_vdwl   =   -181427.4894 Press    =      5964.0030 
Pxx      =      6721.3550 Pyy      =      6721.3550 Pzz      =      4449.2989 
Pxy      =         0.0000 Pxz      =         0.0000 Pyz      =         0.0000 
Lx       =        15.0000 Ly       =        15.0000 Lz       =       255.0510 
---------------- Step       49 ----- CPU =     33.4706 (sec) ----------------
TotEng   =   -288825.6717 PotEng   =   -288825.6717 KinEng   =         0.0000 
Temp     =         0.0000 E_vdwl   =   -181427.4894 Press    =      5967.1636 
Pxx      =      6724.4794 Pyy      =      6724.4794 Pzz      =      4452.5320 
Pxy      =         0.0000 Pxz      =         0.0000 Pyz      =         0.0000 
Lx       =        15.0000 Ly       =        15.0000 Lz       =       255.0510 
---------------- Step       50 ----- CPU =     34.1842 (sec) ----------------
TotEng   =   -288822.9872 PotEng   =   -288822.9872 KinEng   =         0.0000 
Temp     =         0.0000 E_vdwl   =   -181427.4894 Press    =      5970.2518 
Pxx      =      6727.5348 Pyy      =      6727.5348 Pzz      =      4455.6858 
Pxy      =        -0.0000 Pxz      =        -0.0000 Pyz      =         0.0000 
Lx       =        15.0000 Ly       =        15.0000 Lz       =       255.0510 
---------------- Step       51 ----- CPU =     34.8177 (sec) ----------------
TotEng   =   -288820.3322 PotEng   =   -288820.3322 KinEng   =         0.0000 
Temp     =         0.0000 E_vdwl   =   -181427.4894 Press    =      5973.2660 
Pxx      =      6730.5181 Pyy      =      6730.5181 Pzz      =      4458.7616 
Pxy      =         0.0000 Pxz      =         0.0000 Pyz      =         0.0000 
Lx       =        15.0000 Ly       =        15.0000 Lz       =       255.0510 
---------------- Step       52 ----- CPU =     35.4953 (sec) ----------------
TotEng   =   -288817.7031 PotEng   =   -288817.7031 KinEng   =         0.0000 
Temp     =         0.0000 E_vdwl   =   -181427.4894 Press    =      5976.2694 
Pxx      =      6733.4902 Pyy      =      6733.4902 Pzz      =      4461.8278 
Pxy      =        -0.0000 Pxz      =         0.0000 Pyz      =         0.0000 
Lx       =        15.0000 Ly       =        15.0000 Lz       =       255.0510 
---------------- Step       53 ----- CPU =     36.2195 (sec) ----------------
TotEng   =   -288815.0931 PotEng   =   -288815.0931 KinEng   =         0.0000 
Temp     =         0.0000 E_vdwl   =   -181427.4894 Press    =      5979.2674 
Pxx      =      6736.4571 Pyy      =      6736.4571 Pzz      =      4464.8879 
Pxy      =         0.0000 Pxz      =        -0.0000 Pyz      =         0.0000 
Lx       =        15.0000 Ly       =        15.0000 Lz       =       255.0510 
---------------- Step       54 ----- CPU =     36.8455 (sec) ----------------
TotEng   =   -288812.5115 PotEng   =   -288812.5115 KinEng   =         0.0000 
Temp     =         0.0000 E_vdwl   =   -181427.4894 Press    =      5982.2524 
Pxx      =      6739.4103 Pyy      =      6739.4103 Pzz      =      4467.9365 
Pxy      =        -0.0000 Pxz      =        -0.0000 Pyz      =         0.0000 
Lx       =        15.0000 Ly       =        15.0000 Lz       =       255.0510 
---------------- Step       55 ----- CPU =     37.4982 (sec) ----------------
TotEng   =   -288809.9481 PotEng   =   -288809.9481 KinEng   =         0.0000 
Temp     =         0.0000 E_vdwl   =   -181427.4894 Press    =      5985.2313 
Pxx      =      6742.3601 Pyy      =      6742.3601 Pzz      =      4470.9737 
Pxy      =         0.0000 Pxz      =        -0.0000 Pyz      =        -0.0000 
Lx       =        15.0000 Ly       =        15.0000 Lz       =       255.0510 
---------------- Step       56 ----- CPU =     38.1591 (sec) ----------------
TotEng   =   -288807.4130 PotEng   =   -288807.4130 KinEng   =         0.0000 
Temp     =         0.0000 E_vdwl   =   -181427.4894 Press    =      5988.1803 
Pxx      =      6745.2828 Pyy      =      6745.2828 Pzz      =      4473.9752 
Pxy      =         0.0000 Pxz      =         0.0000 Pyz      =        -0.0000 
Lx       =        15.0000 Ly       =        15.0000 Lz       =       255.0510 
---------------- Step       57 ----- CPU =     38.8418 (sec) ----------------
TotEng   =   -288804.8978 PotEng   =   -288804.8978 KinEng   =         0.0000 
Temp     =         0.0000 E_vdwl   =   -181427.4894 Press    =      5991.0743 
Pxx      =      6748.1506 Pyy      =      6748.1506 Pzz      =      4476.9216 
Pxy      =        -0.0000 Pxz      =        -0.0000 Pyz      =        -0.0000 
Lx       =        15.0000 Ly       =        15.0000 Lz       =       255.0510 
---------------- Step       58 ----- CPU =     39.5353 (sec) ----------------
TotEng   =   -288802.3997 PotEng   =   -288802.3997 KinEng   =         0.0000 
Temp     =         0.0000 E_vdwl   =   -181427.4894 Press    =      5993.9083 
Pxx      =      6750.9606 Pyy      =      6750.9606 Pzz      =      4479.8037 
Pxy      =        -0.0000 Pxz      =        -0.0000 Pyz      =        -0.0000 
Lx       =        15.0000 Ly       =        15.0000 Lz       =       255.0510 
---------------- Step       59 ----- CPU =     40.2785 (sec) ----------------
TotEng   =   -288799.9293 PotEng   =   -288799.9293 KinEng   =         0.0000 
Temp     =         0.0000 E_vdwl   =   -181427.4894 Press    =      5996.6960 
Pxx      =      6753.7226 Pyy      =      6753.7226 Pzz      =      4482.6428 
Pxy      =        -0.0000 Pxz      =        -0.0000 Pyz      =        -0.0000 
Lx       =        15.0000 Ly       =        15.0000 Lz       =       255.0510 
---------------- Step       60 ----- CPU =     40.8960 (sec) ----------------
TotEng   =   -288797.4792 PotEng   =   -288797.4792 KinEng   =         0.0000 
Temp     =         0.0000 E_vdwl   =   -181427.4894 Press    =      5999.4752 
Pxx      =      6756.4747 Pyy      =      6756.4747 Pzz      =      4485.4761 
Pxy      =         0.0000 Pxz      =         0.0000 Pyz      =        -0.0000 
Lx       =        15.0000 Ly       =        15.0000 Lz       =       255.0510 
---------------- Step       61 ----- CPU =     41.5270 (sec) ----------------
TotEng   =   -288795.0475 PotEng   =   -288795.0475 KinEng   =         0.0000 
Temp     =         0.0000 E_vdwl   =   -181427.4894 Press    =      6002.3179 
Pxx      =      6759.2925 Pyy      =      6759.2925 Pzz      =      4488.3687 
Pxy      =         0.0000 Pxz      =         0.0000 Pyz      =         0.0000 
Lx       =        15.0000 Ly       =        15.0000 Lz       =       255.0510 
---------------- Step       62 ----- CPU =     42.1889 (sec) ----------------
TotEng   =   -288792.6351 PotEng   =   -288792.6351 KinEng   =         0.0000 
Temp     =         0.0000 E_vdwl   =   -181427.4894 Press    =      6005.1125 
Pxx      =      6762.0626 Pyy      =      6762.0626 Pzz      =      4491.2123 
Pxy      =         0.0000 Pxz      =         0.0000 Pyz      =        -0.0000 
Lx       =        15.0000 Ly       =        15.0000 Lz       =       255.0510 
---------------- Step       63 ----- CPU =     42.8863 (sec) ----------------
TotEng   =   -288790.2382 PotEng   =   -288790.2382 KinEng   =         0.0000 
Temp     =         0.0000 E_vdwl   =   -181427.4894 Press    =      6007.8644 
Pxx      =      6764.7920 Pyy      =      6764.7920 Pzz      =      4494.0093 
Pxy      =        -0.0000 Pxz      =         0.0000 Pyz      =         0.0000 
Lx       =        15.0000 Ly       =        15.0000 Lz       =       255.0510 
---------------- Step       64 ----- CPU =     43.5674 (sec) ----------------
TotEng   =   -288787.8647 PotEng   =   -288787.8647 KinEng   =         0.0000 
Temp     =         0.0000 E_vdwl   =   -181427.4894 Press    =      6010.5710 
Pxx      =      6767.4755 Pyy      =      6767.4755 Pzz      =      4496.7620 
Pxy      =         0.0000 Pxz      =         0.0000 Pyz      =         0.0000 
Lx       =        15.0000 Ly       =        15.0000 Lz       =       255.0510 
---------------- Step       65 ----- CPU =     44.2788 (sec) ----------------
TotEng   =   -288785.5099 PotEng   =   -288785.5099 KinEng   =         0.0000 
Temp     =         0.0000 E_vdwl   =   -181427.4894 Press    =      6013.2435 
Pxx      =      6770.1253 Pyy      =      6770.1253 Pzz      =      4499.4799 
Pxy      =         0.0000 Pxz      =         0.0000 Pyz      =         0.0000 
Lx       =        15.0000 Ly       =        15.0000 Lz       =       255.0510 
---------------- Step       66 ----- CPU =     44.9692 (sec) ----------------
TotEng   =   -288783.1656 PotEng   =   -288783.1656 KinEng   =         0.0000 
Temp     =         0.0000 E_vdwl   =   -181427.4894 Press    =      6015.9231 
Pxx      =      6772.7862 Pyy      =      6772.7862 Pzz      =      4502.1969 
Pxy      =        -0.0000 Pxz      =         0.0000 Pyz      =        -0.0000 
Lx       =        15.0000 Ly       =        15.0000 Lz       =       255.0510 
---------------- Step       67 ----- CPU =     45.5984 (sec) ----------------
TotEng   =   -288780.8448 PotEng   =   -288780.8448 KinEng   =         0.0000 
Temp     =         0.0000 E_vdwl   =   -181427.4894 Press    =      6018.6224 
Pxx      =      6775.4650 Pyy      =      6775.4650 Pzz      =      4504.9374 
Pxy      =         0.0000 Pxz      =         0.0000 Pyz      =         0.0000 
Lx       =        15.0000 Ly       =        15.0000 Lz       =       255.0510 
---------------- Step       68 ----- CPU =     46.3670 (sec) ----------------
TotEng   =   -288778.5436 PotEng   =   -288778.5436 KinEng   =         0.0000 
Temp     =         0.0000 E_vdwl   =   -181427.4894 Press    =      6021.3093 
Pxx      =      6778.1306 Pyy      =      6778.1306 Pzz      =      4507.6667 
Pxy      =         0.0000 Pxz      =        -0.0000 Pyz      =         0.0000 
Lx       =        15.0000 Ly       =        15.0000 Lz       =       255.0510 
---------------- Step       69 ----- CPU =     47.0776 (sec) ----------------
TotEng   =   -288776.2528 PotEng   =   -288776.2528 KinEng   =         0.0000 
Temp     =         0.0000 E_vdwl   =   -181427.4894 Press    =      6023.9609 
Pxx      =      6780.7589 Pyy      =      6780.7589 Pzz      =      4510.3651 
Pxy      =         0.0000 Pxz      =         0.0000 Pyz      =        -0.0000 
Lx       =        15.0000 Ly       =        15.0000 Lz       =       255.0510 
---------------- Step       70 ----- CPU =     47.7715 (sec) ----------------
TotEng   =   -288773.9769 PotEng   =   -288773.9769 KinEng   =         0.0000 
Temp     =         0.0000 E_vdwl   =   -181427.4894 Press    =      6026.5421 
Pxx      =      6783.3194 Pyy      =      6783.3194 Pzz      =      4512.9877 
Pxy      =         0.0000 Pxz      =         0.0000 Pyz      =        -0.0000 
Lx       =        15.0000 Ly       =        15.0000 Lz       =       255.0510 
---------------- Step       71 ----- CPU =     48.4441 (sec) ----------------
TotEng   =   -288771.7222 PotEng   =   -288771.7222 KinEng   =         0.0000 
Temp     =         0.0000 E_vdwl   =   -181427.4894 Press    =      6029.0604 
Pxx      =      6785.8206 Pyy      =      6785.8206 Pzz      =      4515.5399 
Pxy      =         0.0000 Pxz      =        -0.0000 Pyz      =        -0.0000 
Lx       =        15.0000 Ly       =        15.0000 Lz       =       255.0510 
---------------- Step       72 ----- CPU =     49.1004 (sec) ----------------
TotEng   =   -288769.4851 PotEng   =   -288769.4851 KinEng   =         0.0000 
Temp     =         0.0000 E_vdwl   =   -181427.4894 Press    =      6031.6290 
Pxx      =      6788.3724 Pyy      =      6788.3724 Pzz      =      4518.1422 
Pxy      =        -0.0000 Pxz      =        -0.0000 Pyz      =         0.0000 
Lx       =        15.0000 Ly       =        15.0000 Lz       =       255.0510 
---------------- Step       73 ----- CPU =     49.8050 (sec) ----------------
TotEng   =   -288767.2600 PotEng   =   -288767.2600 KinEng   =         0.0000 
Temp     =         0.0000 E_vdwl   =   -181427.4894 Press    =      6034.2238 
Pxx      =      6790.9485 Pyy      =      6790.9485 Pzz      =      4520.7744 
Pxy      =         0.0000 Pxz      =        -0.0000 Pyz      =        -0.0000 
Lx       =        15.0000 Ly       =        15.0000 Lz       =       255.0510 
---------------- Step       74 ----- CPU =     50.4281 (sec) ----------------
TotEng   =   -288765.0442 PotEng   =   -288765.0442 KinEng   =         0.0000 
Temp     =         0.0000 E_vdwl   =   -181427.4894 Press    =      6036.7902 
Pxx      =      6793.4970 Pyy      =      6793.4970 Pzz      =      4523.3765 
Pxy      =         0.0000 Pxz      =         0.0000 Pyz      =         0.0000 
Lx       =        15.0000 Ly       =        15.0000 Lz       =       255.0510 
---------------- Step       75 ----- CPU =     51.0915 (sec) ----------------
TotEng   =   -288762.8514 PotEng   =   -288762.8514 KinEng   =         0.0000 
Temp     =         0.0000 E_vdwl   =   -181427.4894 Press    =      6039.2559 
Pxx      =      6795.9450 Pyy      =      6795.9450 Pzz      =      4525.8779 
Pxy      =        -0.0000 Pxz      =         0.0000 Pyz      =         0.0000 
Lx       =        15.0000 Ly       =        15.0000 Lz       =       255.0510 
---------------- Step       76 ----- CPU =     51.7278 (sec) ----------------
TotEng   =   -288760.6690 PotEng   =   -288760.6690 KinEng   =         0.0000 
Temp     =         0.0000 E_vdwl   =   -181427.4894 Press    =      6041.7363 
Pxx      =      6798.4101 Pyy      =      6798.4101 Pzz      =      4528.3888 
Pxy      =        -0.0000 Pxz      =         0.0000 Pyz      =         0.0000 
Lx       =        15.0000 Ly       =        15.0000 Lz       =       255.0510 
---------------- Step       77 ----- CPU =     52.4478 (sec) ----------------
TotEng   =   -288758.5037 PotEng   =   -288758.5037 KinEng   =         0.0000 
Temp     =         0.0000 E_vdwl   =   -181427.4894 Press    =      6044.2248 
Pxx      =      6800.8794 Pyy      =      6800.8794 Pzz      =      4530.9156 
Pxy      =        -0.0000 Pxz      =        -0.0000 Pyz      =         0.0000 
Lx       =        15.0000 Ly       =        15.0000 Lz       =       255.0510 
---------------- Step       78 ----- CPU =     53.0744 (sec) ----------------
TotEng   =   -288756.3480 PotEng   =   -288756.3480 KinEng   =         0.0000 
Temp     =         0.0000 E_vdwl   =   -181427.4894 Press    =      6046.7114 
Pxx      =      6803.3477 Pyy      =      6803.3477 Pzz      =      4533.4387 
Pxy      =         0.0000 Pxz      =        -0.0000 Pyz      =        -0.0000 
Lx       =        15.0000 Ly       =        15.0000 Lz       =       255.0510 
---------------- Step       79 ----- CPU =     53.7387 (sec) ----------------
TotEng   =   -288754.2056 PotEng   =   -288754.2056 KinEng   =         0.0000 
Temp     =         0.0000 E_vdwl   =   -181427.4894 Press    =      6049.1693 
Pxx      =      6805.7914 Pyy      =      6805.7914 Pzz      =      4535.9251 
Pxy      =         0.0000 Pxz      =        -0.0000 Pyz      =         0.0000 
Lx       =        15.0000 Ly       =        15.0000 Lz       =       255.0510 
---------------- Step       80 ----- CPU =     54.4059 (sec) ----------------
TotEng   =   -288752.0799 PotEng   =   -288752.0799 KinEng   =         0.0000 
Temp     =         0.0000 E_vdwl   =   -181427.4894 Press    =      6051.6182 
Pxx      =      6808.2259 Pyy      =      6808.2259 Pzz      =      4538.4028 
Pxy      =         0.0000 Pxz      =        -0.0000 Pyz      =        -0.0000 
Lx       =        15.0000 Ly       =        15.0000 Lz       =       255.0510 
---------------- Step       81 ----- CPU =     55.1172 (sec) ----------------
TotEng   =   -288749.9660 PotEng   =   -288749.9660 KinEng   =         0.0000 
Temp     =         0.0000 E_vdwl   =   -181427.4894 Press    =      6054.0238 
Pxx      =      6810.6150 Pyy      =      6810.6150 Pzz      =      4540.8416 
Pxy      =         0.0000 Pxz      =         0.0000 Pyz      =         0.0000 
Lx       =        15.0000 Ly       =        15.0000 Lz       =       255.0510 
---------------- Step       82 ----- CPU =     55.8290 (sec) ----------------
TotEng   =   -288747.8652 PotEng   =   -288747.8652 KinEng   =         0.0000 
Temp     =         0.0000 E_vdwl   =   -181427.4894 Press    =      6056.3972 
Pxx      =      6812.9743 Pyy      =      6812.9743 Pzz      =      4543.2431 
Pxy      =        -0.0000 Pxz      =         0.0000 Pyz      =        -0.0000 
Lx       =        15.0000 Ly       =        15.0000 Lz       =       255.0510 
---------------- Step       83 ----- CPU =     56.4502 (sec) ----------------
TotEng   =   -288745.7742 PotEng   =   -288745.7742 KinEng   =         0.0000 
Temp     =         0.0000 E_vdwl   =   -181427.4894 Press    =      6058.7685 
Pxx      =      6815.3314 Pyy      =      6815.3314 Pzz      =      4545.6429 
Pxy      =        -0.0000 Pxz      =         0.0000 Pyz      =         0.0000 
Lx       =        15.0000 Ly       =        15.0000 Lz       =       255.0510 
---------------- Step       84 ----- CPU =     57.1710 (sec) ----------------
TotEng   =   -288743.7009 PotEng   =   -288743.7009 KinEng   =         0.0000 
Temp     =         0.0000 E_vdwl   =   -181427.4894 Press    =      6061.1612 
Pxx      =      6817.7089 Pyy      =      6817.7089 Pzz      =      4548.0659 
Pxy      =         0.0000 Pxz      =         0.0000 Pyz      =         0.0000 
Lx       =        15.0000 Ly       =        15.0000 Lz       =       255.0510 
---------------- Step       85 ----- CPU =     57.7971 (sec) ----------------
TotEng   =   -288741.6333 PotEng   =   -288741.6333 KinEng   =         0.0000 
Temp     =         0.0000 E_vdwl   =   -181427.4894 Press    =      6063.5891 
Pxx      =      6820.1192 Pyy      =      6820.1192 Pzz      =      4550.5288 
Pxy      =         0.0000 Pxz      =         0.0000 Pyz      =        -0.0000 
Lx       =        15.0000 Ly       =        15.0000 Lz       =       255.0510 
---------------- Step       86 ----- CPU =     58.5181 (sec) ----------------
TotEng   =   -288739.5811 PotEng   =   -288739.5811 KinEng   =         0.0000 
Temp     =         0.0000 E_vdwl   =   -181427.4894 Press    =      6065.9218 
Pxx      =      6822.4400 Pyy      =      6822.4400 Pzz      =      4552.8854 
Pxy      =         0.0000 Pxz      =         0.0000 Pyz      =        -0.0000 
Lx       =        15.0000 Ly       =        15.0000 Lz       =       255.0510 
---------------- Step       87 ----- CPU =     59.1559 (sec) ----------------
TotEng   =   -288737.5416 PotEng   =   -288737.5416 KinEng   =         0.0000 
Temp     =         0.0000 E_vdwl   =   -181427.4894 Press    =      6068.2133 
Pxx      =      6824.7200 Pyy      =      6824.7200 Pzz      =      4555.1998 
Pxy      =        -0.0000 Pxz      =         0.0000 Pyz      =         0.0000 
Lx       =        15.0000 Ly       =        15.0000 Lz       =       255.0510 
---------------- Step       88 ----- CPU =     59.8591 (sec) ----------------
TotEng   =   -288735.5103 PotEng   =   -288735.5103 KinEng   =         0.0000 
Temp     =         0.0000 E_vdwl   =   -181427.4894 Press    =      6070.5647 
Pxx      =      6827.0559 Pyy      =      6827.0559 Pzz      =      4557.5823 
Pxy      =        -0.0000 Pxz      =         0.0000 Pyz      =         0.0000 
Lx       =        15.0000 Ly       =        15.0000 Lz       =       255.0510 
---------------- Step       89 ----- CPU =     60.5674 (sec) ----------------
TotEng   =   -288733.4982 PotEng   =   -288733.4982 KinEng   =         0.0000 
Temp     =         0.0000 E_vdwl   =   -181427.4894 Press    =      6072.8763 
Pxx      =      6829.3522 Pyy      =      6829.3522 Pzz      =      4559.9246 
Pxy      =        -0.0000 Pxz      =         0.0000 Pyz      =         0.0000 
Lx       =        15.0000 Ly       =        15.0000 Lz       =       255.0510 
---------------- Step       90 ----- CPU =     61.2371 (sec) ----------------
TotEng   =   -288731.4915 PotEng   =   -288731.4915 KinEng   =         0.0000 
Temp     =         0.0000 E_vdwl   =   -181427.4894 Press    =      6075.1743 
Pxx      =      6831.6378 Pyy      =      6831.6378 Pzz      =      4562.2473 
Pxy      =         0.0000 Pxz      =        -0.0000 Pyz      =         0.0000 
Lx       =        15.0000 Ly       =        15.0000 Lz       =       255.0510 
---------------- Step       91 ----- CPU =     61.8753 (sec) ----------------
TotEng   =   -288729.4927 PotEng   =   -288729.4927 KinEng   =         0.0000 
Temp     =         0.0000 E_vdwl   =   -181427.4894 Press    =      6077.4611 
Pxx      =      6833.9138 Pyy      =      6833.9138 Pzz      =      4564.5558 
Pxy      =        -0.0000 Pxz      =        -0.0000 Pyz      =         0.0000 
Lx       =        15.0000 Ly       =        15.0000 Lz       =       255.0510 
---------------- Step       92 ----- CPU =     62.5811 (sec) ----------------
TotEng   =   -288727.5144 PotEng   =   -288727.5144 KinEng   =         0.0000 
Temp     =         0.0000 E_vdwl   =   -181427.4894 Press    =      6079.7164 
Pxx      =      6836.1565 Pyy      =      6836.1565 Pzz      =      4566.8362 
Pxy      =         0.0000 Pxz      =         0.0000 Pyz      =         0.0000 
Lx       =        15.0000 Ly       =        15.0000 Lz       =       255.0510 
---------------- Step       93 ----- CPU =     63.2191 (sec) ----------------
TotEng   =   -288725.5344 PotEng   =   -288725.5344 KinEng   =         0.0000 
Temp     =         0.0000 E_vdwl   =   -181427.4894 Press    =      6081.9551 
Pxx      =      6838.3834 Pyy      =      6838.3834 Pzz      =      4569.0984 
Pxy      =        -0.0000 Pxz      =         0.0000 Pyz      =        -0.0000 
Lx       =        15.0000 Ly       =        15.0000 Lz       =       255.0510 
---------------- Step       94 ----- CPU =     63.8461 (sec) ----------------
TotEng   =   -288723.5748 PotEng   =   -288723.5748 KinEng   =         0.0000 
Temp     =         0.0000 E_vdwl   =   -181427.4894 Press    =      6084.2053 
Pxx      =      6840.6193 Pyy      =      6840.6193 Pzz      =      4571.3771 
Pxy      =        -0.0000 Pxz      =         0.0000 Pyz      =        -0.0000 
Lx       =        15.0000 Ly       =        15.0000 Lz       =       255.0510 
---------------- Step       95 ----- CPU =     64.4713 (sec) ----------------
TotEng   =   -288721.6201 PotEng   =   -288721.6201 KinEng   =         0.0000 
Temp     =         0.0000 E_vdwl   =   -181427.4894 Press    =      6086.4739 
Pxx      =      6842.8736 Pyy      =      6842.8736 Pzz      =      4573.6746 
Pxy      =         0.0000 Pxz      =         0.0000 Pyz      =        -0.0000 
Lx       =        15.0000 Ly       =        15.0000 Lz       =       255.0510 
---------------- Step       96 ----- CPU =     65.1775 (sec) ----------------
TotEng   =   -288719.6781 PotEng   =   -288719.6781 KinEng   =         0.0000 
Temp     =         0.0000 E_vdwl   =   -181427.4894 Press    =      6088.7106 
Pxx      =      6845.0983 Pyy      =      6845.0983 Pzz      =      4575.9351 
Pxy      =        -0.0000 Pxz      =        -0.0000 Pyz      =         0.0000 
Lx       =        15.0000 Ly       =        15.0000 Lz       =       255.0510 
---------------- Step       97 ----- CPU =     65.8141 (sec) ----------------
TotEng   =   -288717.7449 PotEng   =   -288717.7449 KinEng   =         0.0000 
Temp     =         0.0000 E_vdwl   =   -181427.4894 Press    =      6090.9069 
Pxx      =      6847.2841 Pyy      =      6847.2841 Pzz      =      4578.1526 
Pxy      =         0.0000 Pxz      =         0.0000 Pyz      =         0.0000 
Lx       =        15.0000 Ly       =        15.0000 Lz       =       255.0510 
---------------- Step       98 ----- CPU =     66.4469 (sec) ----------------
TotEng   =   -288715.8209 PotEng   =   -288715.8209 KinEng   =         0.0000 
Temp     =         0.0000 E_vdwl   =   -181427.4894 Press    =      6093.0888 
Pxx      =      6849.4562 Pyy      =      6849.4562 Pzz      =      4580.3541 
Pxy      =        -0.0000 Pxz      =         0.0000 Pyz      =         0.0000 
Lx       =        15.0000 Ly       =        15.0000 Lz       =       255.0510 
---------------- Step       99 ----- CPU =     67.0708 (sec) ----------------
TotEng   =   -288713.9064 PotEng   =   -288713.9064 KinEng   =         0.0000 
Temp     =         0.0000 E_vdwl   =   -181427.4894 Press    =      6095.2684 
Pxx      =      6851.6260 Pyy      =      6851.6260 Pzz      =      4582.5532 
Pxy      =         0.0000 Pxz      =         0.0000 Pyz      =        -0.0000 
Lx       =        15.0000 Ly       =        15.0000 Lz       =       255.0510 
---------------- Step      100 ----- CPU =     67.7277 (sec) ----------------
TotEng   =   -288712.0047 PotEng   =   -288712.0047 KinEng   =         0.0000 
Temp     =         0.0000 E_vdwl   =   -181427.4894 Press    =      6097.4554 
Pxx      =      6853.7983 Pyy      =      6853.7983 Pzz      =      4584.7698 
Pxy      =         0.0000 Pxz      =         0.0000 Pyz      =         0.0000 
Lx       =        15.0000 Ly       =        15.0000 Lz       =       255.0510 
---------------- Step      101 ----- CPU =     68.3547 (sec) ----------------
TotEng   =   -288710.1064 PotEng   =   -288710.1064 KinEng   =         0.0000 
Temp     =         0.0000 E_vdwl   =   -181427.4894 Press    =      6099.6371 
Pxx      =      6855.9696 Pyy      =      6855.9696 Pzz      =      4586.9723 
Pxy      =         0.0000 Pxz      =         0.0000 Pyz      =        -0.0000 
Lx       =        15.0000 Ly       =        15.0000 Lz       =       255.0510 
---------------- Step      102 ----- CPU =     69.0776 (sec) ----------------
TotEng   =   -288708.2225 PotEng   =   -288708.2225 KinEng   =         0.0000 
Temp     =         0.0000 E_vdwl   =   -181427.4894 Press    =      6101.8063 
Pxx      =      6858.1275 Pyy      =      6858.1275 Pzz      =      4589.1639 
Pxy      =        -0.0000 Pxz      =        -0.0000 Pyz      =        -0.0000 
Lx       =        15.0000 Ly       =        15.0000 Lz       =       255.0510 
---------------- Step      103 ----- CPU =     69.7361 (sec) ----------------
TotEng   =   -288706.3460 PotEng   =   -288706.3460 KinEng   =         0.0000 
Temp     =         0.0000 E_vdwl   =   -181427.4894 Press    =      6103.9608 
Pxx      =      6860.2726 Pyy      =      6860.2726 Pzz      =      4591.3371 
Pxy      =         0.0000 Pxz      =        -0.0000 Pyz      =        -0.0000 
Lx       =        15.0000 Ly       =        15.0000 Lz       =       255.0510 
---------------- Step      104 ----- CPU =     70.3961 (sec) ----------------
TotEng   =   -288704.4824 PotEng   =   -288704.4824 KinEng   =         0.0000 
Temp     =         0.0000 E_vdwl   =   -181427.4894 Press    =      6106.0930 
Pxx      =      6862.3952 Pyy      =      6862.3952 Pzz      =      4593.4886 
Pxy      =         0.0000 Pxz      =        -0.0000 Pyz      =         0.0000 
Lx       =        15.0000 Ly       =        15.0000 Lz       =       255.0510 
---------------- Step      105 ----- CPU =     71.0714 (sec) ----------------
TotEng   =   -288702.6205 PotEng   =   -288702.6205 KinEng   =         0.0000 
Temp     =         0.0000 E_vdwl   =   -181427.4894 Press    =      6108.1924 
Pxx      =      6864.4850 Pyy      =      6864.4850 Pzz      =      4595.6070 
Pxy      =        -0.0000 Pxz      =         0.0000 Pyz      =         0.0000 
Lx       =        15.0000 Ly       =        15.0000 Lz       =       255.0510 
---------------- Step      106 ----- CPU =     71.7442 (sec) ----------------
TotEng   =   -288700.7710 PotEng   =   -288700.7710 KinEng   =         0.0000 
Temp     =         0.0000 E_vdwl   =   -181427.4894 Press    =      6110.2795 
Pxx      =      6866.5616 Pyy      =      6866.5616 Pzz      =      4597.7152 
Pxy      =        -0.0000 Pxz      =         0.0000 Pyz      =         0.0000 
Lx       =        15.0000 Ly       =        15.0000 Lz       =       255.0510 
---------------- Step      107 ----- CPU =     72.4718 (sec) ----------------
TotEng   =   -288698.9259 PotEng   =   -288698.9259 KinEng   =         0.0000 
Temp     =         0.0000 E_vdwl   =   -181427.4894 Press    =      6112.4080 
Pxx      =      6868.6790 Pyy      =      6868.6790 Pzz      =      4599.8661 
Pxy      =         0.0000 Pxz      =         0.0000 Pyz      =         0.0000 
Lx       =        15.0000 Ly       =        15.0000 Lz       =       255.0510 
---------------- Step      108 ----- CPU =     73.1301 (sec) ----------------
TotEng   =   -288697.0991 PotEng   =   -288697.0991 KinEng   =         0.0000 
Temp     =         0.0000 E_vdwl   =   -181427.4894 Press    =      6114.5541 
Pxx      =      6870.8113 Pyy      =      6870.8113 Pzz      =      4602.0397 
Pxy      =        -0.0000 Pxz      =        -0.0000 Pyz      =         0.0000 
Lx       =        15.0000 Ly       =        15.0000 Lz       =       255.0510 
---------------- Step      109 ----- CPU =     73.7936 (sec) ----------------
TotEng   =   -288695.2726 PotEng   =   -288695.2726 KinEng   =         0.0000 
Temp     =         0.0000 E_vdwl   =   -181427.4894 Press    =      6116.6181 
Pxx      =      6872.8689 Pyy      =      6872.8689 Pzz      =      4604.1166 
Pxy      =         0.0000 Pxz      =        -0.0000 Pyz      =        -0.0000 
Lx       =        15.0000 Ly       =        15.0000 Lz       =       255.0510 
---------------- Step      110 ----- CPU =     74.4641 (sec) ----------------
TotEng   =   -288693.4579 PotEng   =   -288693.4579 KinEng   =         0.0000 
Temp     =         0.0000 E_vdwl   =   -181427.4894 Press    =      6118.6473 
Pxx      =      6874.8876 Pyy      =      6874.8876 Pzz      =      4606.1667 
Pxy      =         0.0000 Pxz      =        -0.0000 Pyz      =        -0.0000 
Lx       =        15.0000 Ly       =        15.0000 Lz       =       255.0510 
---------------- Step      111 ----- CPU =     75.1334 (sec) ----------------
TotEng   =   -288691.6499 PotEng   =   -288691.6499 KinEng   =         0.0000 
Temp     =         0.0000 E_vdwl   =   -181427.4894 Press    =      6120.7055 
Pxx      =      6876.9376 Pyy      =      6876.9376 Pzz      =      4608.2415 
Pxy      =        -0.0000 Pxz      =         0.0000 Pyz      =        -0.0000 
Lx       =        15.0000 Ly       =        15.0000 Lz       =       255.0510 
---------------- Step      112 ----- CPU =     75.8073 (sec) ----------------
TotEng   =   -288689.8508 PotEng   =   -288689.8508 KinEng   =         0.0000 
Temp     =         0.0000 E_vdwl   =   -181427.4894 Press    =      6122.7878 
Pxx      =      6879.0096 Pyy      =      6879.0096 Pzz      =      4610.3441 
Pxy      =         0.0000 Pxz      =         0.0000 Pyz      =        -0.0000 
Lx       =        15.0000 Ly       =        15.0000 Lz       =       255.0510 
---------------- Step      113 ----- CPU =     76.5092 (sec) ----------------
TotEng   =   -288688.0555 PotEng   =   -288688.0555 KinEng   =         0.0000 
Temp     =         0.0000 E_vdwl   =   -181427.4894 Press    =      6124.8783 
Pxx      =      6881.0891 Pyy      =      6881.0891 Pzz      =      4612.4566 
Pxy      =         0.0000 Pxz      =         0.0000 Pyz      =         0.0000 
Lx       =        15.0000 Ly       =        15.0000 Lz       =       255.0510 
---------------- Step      114 ----- CPU =     77.1740 (sec) ----------------
TotEng   =   -288686.2740 PotEng   =   -288686.2740 KinEng   =         0.0000 
Temp     =         0.0000 E_vdwl   =   -181427.4894 Press    =      6126.9028 
Pxx      =      6883.1067 Pyy      =      6883.1067 Pzz      =      4614.4950 
Pxy      =         0.0000 Pxz      =         0.0000 Pyz      =         0.0000 
Lx       =        15.0000 Ly       =        15.0000 Lz       =       255.0510 
---------------- Step      115 ----- CPU =     77.7937 (sec) ----------------
TotEng   =   -288684.5036 PotEng   =   -288684.5036 KinEng   =         0.0000 
Temp     =         0.0000 E_vdwl   =   -181427.4894 Press    =      6128.8950 
Pxx      =      6885.0912 Pyy      =      6885.0912 Pzz      =      4616.5025 
Pxy      =        -0.0000 Pxz      =        -0.0000 Pyz      =        -0.0000 
Lx       =        15.0000 Ly       =        15.0000 Lz       =       255.0510 
---------------- Step      116 ----- CPU =     78.5193 (sec) ----------------
TotEng   =   -288682.7286 PotEng   =   -288682.7286 KinEng   =         0.0000 
Temp     =         0.0000 E_vdwl   =   -181427.4894 Press    =      6130.9200 
Pxx      =      6887.1077 Pyy      =      6887.1077 Pzz      =      4618.5444 
Pxy      =         0.0000 Pxz      =         0.0000 Pyz      =         0.0000 
Lx       =        15.0000 Ly       =        15.0000 Lz       =       255.0510 
---------------- Step      117 ----- CPU =     79.2113 (sec) ----------------
TotEng   =   -288680.9648 PotEng   =   -288680.9648 KinEng   =         0.0000 
Temp     =         0.0000 E_vdwl   =   -181427.4894 Press    =      6132.9545 
Pxx      =      6889.1311 Pyy      =      6889.1311 Pzz      =      4620.6013 
Pxy      =        -0.0000 Pxz      =         0.0000 Pyz      =         0.0000 
Lx       =        15.0000 Ly       =        15.0000 Lz       =       255.0510 
---------------- Step      118 ----- CPU =     80.0234 (sec) ----------------
TotEng   =   -288679.2152 PotEng   =   -288679.2152 KinEng   =         0.0000 
Temp     =         0.0000 E_vdwl   =   -181427.4894 Press    =      6134.9799 
Pxx      =      6891.1458 Pyy      =      6891.1458 Pzz      =      4622.6480 
Pxy      =        -0.0000 Pxz      =         0.0000 Pyz      =        -0.0000 
Lx       =        15.0000 Ly       =        15.0000 Lz       =       255.0510 
---------------- Step      119 ----- CPU =     80.7300 (sec) ----------------
TotEng   =   -288677.4649 PotEng   =   -288677.4649 KinEng   =         0.0000 
Temp     =         0.0000 E_vdwl   =   -181427.4894 Press    =      6136.9852 
Pxx      =      6893.1441 Pyy      =      6893.1441 Pzz      =      4624.6674 
Pxy      =         0.0000 Pxz      =         0.0000 Pyz      =         0.0000 
Lx       =        15.0000 Ly       =        15.0000 Lz       =       255.0510 
---------------- Step      120 ----- CPU =     81.4937 (sec) ----------------
TotEng   =   -288675.7309 PotEng   =   -288675.7309 KinEng   =         0.0000 
Temp     =         0.0000 E_vdwl   =   -181427.4894 Press    =      6138.9588 
Pxx      =      6895.1100 Pyy      =      6895.1100 Pzz      =      4626.6563 
Pxy      =        -0.0000 Pxz      =        -0.0000 Pyz      =        -0.0000 
Lx       =        15.0000 Ly       =        15.0000 Lz       =       255.0510 
---------------- Step      121 ----- CPU =     82.2636 (sec) ----------------
TotEng   =   -288673.9972 PotEng   =   -288673.9972 KinEng   =         0.0000 
Temp     =         0.0000 E_vdwl   =   -181427.4894 Press    =      6140.9267 
Pxx      =      6897.0703 Pyy      =      6897.0703 Pzz      =      4628.6395 
Pxy      =         0.0000 Pxz      =        -0.0000 Pyz      =        -0.0000 
Lx       =        15.0000 Ly       =        15.0000 Lz       =       255.0510 
---------------- Step      122 ----- CPU =     82.9635 (sec) ----------------
TotEng   =   -288672.2746 PotEng   =   -288672.2746 KinEng   =         0.0000 
Temp     =         0.0000 E_vdwl   =   -181427.4894 Press    =      6142.8780 
Pxx      =      6899.0114 Pyy      =      6899.0114 Pzz      =      4630.6114 
Pxy      =         0.0000 Pxz      =        -0.0000 Pyz      =         0.0000 
Lx       =        15.0000 Ly       =        15.0000 Lz       =       255.0510 
---------------- Step      123 ----- CPU =     83.6355 (sec) ----------------
TotEng   =   -288670.5511 PotEng   =   -288670.5511 KinEng   =         0.0000 
Temp     =         0.0000 E_vdwl   =   -181427.4894 Press    =      6144.8577 
Pxx      =      6900.9858 Pyy      =      6900.9858 Pzz      =      4632.6016 
Pxy      =        -0.0000 Pxz      =         0.0000 Pyz      =         0.0000 
Lx       =        15.0000 Ly       =        15.0000 Lz       =       255.0510 
---------------- Step      124 ----- CPU =     84.2878 (sec) ----------------
TotEng   =   -288668.8454 PotEng   =   -288668.8454 KinEng   =         0.0000 
Temp     =         0.0000 E_vdwl   =   -181427.4894 Press    =      6146.8322 
Pxx      =      6902.9521 Pyy      =      6902.9521 Pzz      =      4634.5922 
Pxy      =        -0.0000 Pxz      =        -0.0000 Pyz      =        -0.0000 
Lx       =        15.0000 Ly       =        15.0000 Lz       =       255.0510 
---------------- Step      125 ----- CPU =     84.9606 (sec) ----------------
TotEng   =   -288667.1369 PotEng   =   -288667.1369 KinEng   =         0.0000 
Temp     =         0.0000 E_vdwl   =   -181427.4894 Press    =      6148.7869 
Pxx      =      6904.8987 Pyy      =      6904.8987 Pzz      =      4636.5632 
Pxy      =         0.0000 Pxz      =        -0.0000 Pyz      =        -0.0000 
Lx       =        15.0000 Ly       =        15.0000 Lz       =       255.0510 
---------------- Step      126 ----- CPU =     85.6464 (sec) ----------------
TotEng   =   -288665.4420 PotEng   =   -288665.4420 KinEng   =         0.0000 
Temp     =         0.0000 E_vdwl   =   -181427.4894 Press    =      6150.6958 
Pxx      =      6906.7974 Pyy      =      6906.7974 Pzz      =      4638.4925 
Pxy      =        -0.0000 Pxz      =        -0.0000 Pyz      =         0.0000 
Lx       =        15.0000 Ly       =        15.0000 Lz       =       255.0510 
---------------- Step      127 ----- CPU =     86.3139 (sec) ----------------
TotEng   =   -288663.7489 PotEng   =   -288663.7489 KinEng   =         0.0000 
Temp     =         0.0000 E_vdwl   =   -181427.4894 Press    =      6152.6219 
Pxx      =      6908.7175 Pyy      =      6908.7175 Pzz      =      4640.4308 
Pxy      =        -0.0000 Pxz      =        -0.0000 Pyz      =        -0.0000 
Lx       =        15.0000 Ly       =        15.0000 Lz       =       255.0510 
---------------- Step      128 ----- CPU =     86.9858 (sec) ----------------
TotEng   =   -288662.0630 PotEng   =   -288662.0630 KinEng   =         0.0000 
Temp     =         0.0000 E_vdwl   =   -181427.4894 Press    =      6154.5674 
Pxx      =      6910.6552 Pyy      =      6910.6552 Pzz      =      4642.3917 
Pxy      =        -0.0000 Pxz      =         0.0000 Pyz      =         0.0000 
Lx       =        15.0000 Ly       =        15.0000 Lz       =       255.0510 
---------------- Step      129 ----- CPU =     87.6113 (sec) ----------------
TotEng   =   -288660.3909 PotEng   =   -288660.3909 KinEng   =         0.0000 
Temp     =         0.0000 E_vdwl   =   -181427.4894 Press    =      6156.4969 
Pxx      =      6912.5775 Pyy      =      6912.5775 Pzz      =      4644.3358 
Pxy      =         0.0000 Pxz      =        -0.0000 Pyz      =        -0.0000 
Lx       =        15.0000 Ly       =        15.0000 Lz       =       255.0510 
---------------- Step      130 ----- CPU =     88.3164 (sec) ----------------
TotEng   =   -288658.7186 PotEng   =   -288658.7186 KinEng   =         0.0000 
Temp     =         0.0000 E_vdwl   =   -181427.4894 Press    =      6158.4040 
Pxx      =      6914.4789 Pyy      =      6914.4789 Pzz      =      4646.2542 
Pxy      =         0.0000 Pxz      =        -0.0000 Pyz      =         0.0000 
Lx       =        15.0000 Ly       =        15.0000 Lz       =       255.0510 
---------------- Step      131 ----- CPU =     88.9821 (sec) ----------------
TotEng   =   -288657.0535 PotEng   =   -288657.0535 KinEng   =         0.0000 
Temp     =         0.0000 E_vdwl   =   -181427.4894 Press    =      6160.3162 
Pxx      =      6916.3830 Pyy      =      6916.3830 Pzz      =      4648.1826 
Pxy      =        -0.0000 Pxz      =        -0.0000 Pyz      =         0.0000 
Lx       =        15.0000 Ly       =        15.0000 Lz       =       255.0510 
---------------- Step      132 ----- CPU =     89.6051 (sec) ----------------
TotEng   =   -288655.3948 PotEng   =   -288655.3948 KinEng   =         0.0000 
Temp     =         0.0000 E_vdwl   =   -181427.4894 Press    =      6162.1980 
Pxx      =      6918.2560 Pyy      =      6918.2560 Pzz      =      4650.0819 
Pxy      =        -0.0000 Pxz      =        -0.0000 Pyz      =        -0.0000 
Lx       =        15.0000 Ly       =        15.0000 Lz       =       255.0510 
---------------- Step      133 ----- CPU =     90.3491 (sec) ----------------
TotEng   =   -288653.7390 PotEng   =   -288653.7390 KinEng   =         0.0000 
Temp     =         0.0000 E_vdwl   =   -181427.4894 Press    =      6164.0712 
Pxx      =      6920.1226 Pyy      =      6920.1226 Pzz      =      4651.9685 
Pxy      =         0.0000 Pxz      =        -0.0000 Pyz      =         0.0000 
Lx       =        15.0000 Ly       =        15.0000 Lz       =       255.0510 
---------------- Step      134 ----- CPU =     90.9723 (sec) ----------------
TotEng   =   -288652.0961 PotEng   =   -288652.0961 KinEng   =         0.0000 
Temp     =         0.0000 E_vdwl   =   -181427.4894 Press    =      6165.9403 
Pxx      =      6921.9846 Pyy      =      6921.9846 Pzz      =      4653.8518 
Pxy      =        -0.0000 Pxz      =         0.0000 Pyz      =         0.0000 
Lx       =        15.0000 Ly       =        15.0000 Lz       =       255.0510 
---------------- Step      135 ----- CPU =     91.6276 (sec) ----------------
TotEng   =   -288650.4573 PotEng   =   -288650.4573 KinEng   =         0.0000 
Temp     =         0.0000 E_vdwl   =   -181427.4894 Press    =      6167.8325 
Pxx      =      6923.8706 Pyy      =      6923.8706 Pzz      =      4655.7562 
Pxy      =         0.0000 Pxz      =         0.0000 Pyz      =         0.0000 
Lx       =        15.0000 Ly       =        15.0000 Lz       =       255.0510 
---------------- Step      136 ----- CPU =     92.2587 (sec) ----------------
TotEng   =   -288648.8247 PotEng   =   -288648.8247 KinEng   =         0.0000 
Temp     =         0.0000 E_vdwl   =   -181427.4894 Press    =      6169.7295 
Pxx      =      6925.7596 Pyy      =      6925.7596 Pzz      =      4657.6695 
Pxy      =         0.0000 Pxz      =        -0.0000 Pyz      =         0.0000 
Lx       =        15.0000 Ly       =        15.0000 Lz       =       255.0510 
---------------- Step      137 ----- CPU =     92.9862 (sec) ----------------
TotEng   =   -288647.1884 PotEng   =   -288647.1884 KinEng   =         0.0000 
Temp     =         0.0000 E_vdwl   =   -181427.4894 Press    =      6171.5913 
Pxx      =      6927.6144 Pyy      =      6927.6144 Pzz      =      4659.5453 
Pxy      =         0.0000 Pxz      =         0.0000 Pyz      =         0.0000 
Lx       =        15.0000 Ly       =        15.0000 Lz       =       255.0510 
---------------- Step      138 ----- CPU =     93.6696 (sec) ----------------
TotEng   =   -288645.5721 PotEng   =   -288645.5721 KinEng   =         0.0000 
Temp     =         0.0000 E_vdwl   =   -181427.4894 Press    =      6173.4118 
Pxx      =      6929.4284 Pyy      =      6929.4284 Pzz      =      4661.3786 
Pxy      =         0.0000 Pxz      =        -0.0000 Pyz      =         0.0000 
Lx       =        15.0000 Ly       =        15.0000 Lz       =       255.0510 
---------------- Step      139 ----- CPU =     94.2956 (sec) ----------------
TotEng   =   -288643.9538 PotEng   =   -288643.9538 KinEng   =         0.0000 
Temp     =         0.0000 E_vdwl   =   -181427.4894 Press    =      6175.2443 
Pxx      =      6931.2543 Pyy      =      6931.2543 Pzz      =      4663.2244 
Pxy      =        -0.0000 Pxz      =        -0.0000 Pyz      =         0.0000 
Lx       =        15.0000 Ly       =        15.0000 Lz       =       255.0510 
---------------- Step      140 ----- CPU =     95.0151 (sec) ----------------
TotEng   =   -288642.3435 PotEng   =   -288642.3435 KinEng   =         0.0000 
Temp     =         0.0000 E_vdwl   =   -181427.4894 Press    =      6177.0973 
Pxx      =      6933.0991 Pyy      =      6933.0991 Pzz      =      4665.0936 
Pxy      =        -0.0000 Pxz      =        -0.0000 Pyz      =         0.0000 
Lx       =        15.0000 Ly       =        15.0000 Lz       =       255.0510 
---------------- Step      141 ----- CPU =     95.6762 (sec) ----------------
TotEng   =   -288640.7345 PotEng   =   -288640.7345 KinEng   =         0.0000 
Temp     =         0.0000 E_vdwl   =   -181427.4894 Press    =      6178.9473 
Pxx      =      6934.9454 Pyy      =      6934.9454 Pzz      =      4666.9511 
Pxy      =         0.0000 Pxz      =        -0.0000 Pyz      =         0.0000 
Lx       =        15.0000 Ly       =        15.0000 Lz       =       255.0510 
---------------- Step      142 ----- CPU =     96.3924 (sec) ----------------
TotEng   =   -288639.1393 PotEng   =   -288639.1393 KinEng   =         0.0000 
Temp     =         0.0000 E_vdwl   =   -181427.4894 Press    =      6180.7656 
Pxx      =      6936.7564 Pyy      =      6936.7564 Pzz      =      4668.7838 
Pxy      =         0.0000 Pxz      =         0.0000 Pyz      =         0.0000 
Lx       =        15.0000 Ly       =        15.0000 Lz       =       255.0510 
---------------- Step      143 ----- CPU =     97.0539 (sec) ----------------
TotEng   =   -288637.5458 PotEng   =   -288637.5458 KinEng   =         0.0000 
Temp     =         0.0000 E_vdwl   =   -181427.4894 Press    =      6182.5927 
Pxx      =      6938.5780 Pyy      =      6938.5780 Pzz      =      4670.6221 
Pxy      =        -0.0000 Pxz      =        -0.0000 Pyz      =         0.0000 
Lx       =        15.0000 Ly       =        15.0000 Lz       =       255.0510 
---------------- Step      144 ----- CPU =     97.6740 (sec) ----------------
TotEng   =   -288635.9549 PotEng   =   -288635.9549 KinEng   =         0.0000 
Temp     =         0.0000 E_vdwl   =   -181427.4894 Press    =      6184.4085 
Pxx      =      6940.3866 Pyy      =      6940.3866 Pzz      =      4672.4522 
Pxy      =        -0.0000 Pxz      =        -0.0000 Pyz      =         0.0000 
Lx       =        15.0000 Ly       =        15.0000 Lz       =       255.0510 
---------------- Step      145 ----- CPU =     98.3019 (sec) ----------------
TotEng   =   -288634.3733 PotEng   =   -288634.3733 KinEng   =         0.0000 
Temp     =         0.0000 E_vdwl   =   -181427.4894 Press    =      6186.1839 
Pxx      =      6942.1536 Pyy      =      6942.1536 Pzz      =      4674.2445 
Pxy      =         0.0000 Pxz      =         0.0000 Pyz      =        -0.0000 
Lx       =        15.0000 Ly       =        15.0000 Lz       =       255.0510 
---------------- Step      146 ----- CPU =     99.0228 (sec) ----------------
TotEng   =   -288632.8016 PotEng   =   -288632.8016 KinEng   =         0.0000 
Temp     =         0.0000 E_vdwl   =   -181427.4894 Press    =      6187.9736 
Pxx      =      6943.9375 Pyy      =      6943.9375 Pzz      =      4676.0456 
Pxy      =        -0.0000 Pxz      =         0.0000 Pyz      =         0.0000 
Lx       =        15.0000 Ly       =        15.0000 Lz       =       255.0510 
---------------- Step      147 ----- CPU =     99.6880 (sec) ----------------
TotEng   =   -288631.2252 PotEng   =   -288631.2252 KinEng   =         0.0000 
Temp     =         0.0000 E_vdwl   =   -181427.4894 Press    =      6189.8062 
Pxx      =      6945.7671 Pyy      =      6945.7671 Pzz      =      4677.8844 
Pxy      =         0.0000 Pxz      =         0.0000 Pyz      =         0.0000 
Lx       =        15.0000 Ly       =        15.0000 Lz       =       255.0510 
---------------- Step      148 ----- CPU =    100.3046 (sec) ----------------
TotEng   =   -288629.6560 PotEng   =   -288629.6560 KinEng   =         0.0000 
Temp     =         0.0000 E_vdwl   =   -181427.4894 Press    =      6191.6392 
Pxx      =      6947.5943 Pyy      =      6947.5943 Pzz      =      4679.7290 
Pxy      =         0.0000 Pxz      =         0.0000 Pyz      =        -0.0000 
Lx       =        15.0000 Ly       =        15.0000 Lz       =       255.0510 
---------------- Step      149 ----- CPU =    101.0236 (sec) ----------------
TotEng   =   -288628.0946 PotEng   =   -288628.0946 KinEng   =         0.0000 
Temp     =         0.0000 E_vdwl   =   -181427.4894 Press    =      6193.4271 
Pxx      =      6949.3735 Pyy      =      6949.3735 Pzz      =      4681.5344 
Pxy      =         0.0000 Pxz      =         0.0000 Pyz      =         0.0000 
Lx       =        15.0000 Ly       =        15.0000 Lz       =       255.0510 
---------------- Step      150 ----- CPU =    101.6702 (sec) ----------------
TotEng   =   -288626.5445 PotEng   =   -288626.5445 KinEng   =         0.0000 
Temp     =         0.0000 E_vdwl   =   -181427.4894 Press    =      6195.1519 
Pxx      =      6951.0915 Pyy      =      6951.0915 Pzz      =      4683.2728 
Pxy      =         0.0000 Pxz      =         0.0000 Pyz      =        -0.0000 
Lx       =        15.0000 Ly       =        15.0000 Lz       =       255.0510 
---------------- Step      151 ----- CPU =    102.2925 (sec) ----------------
TotEng   =   -288624.9902 PotEng   =   -288624.9902 KinEng   =         0.0000 
Temp     =         0.0000 E_vdwl   =   -181427.4894 Press    =      6196.9069 
Pxx      =      6952.8386 Pyy      =      6952.8386 Pzz      =      4685.0435 
Pxy      =         0.0000 Pxz      =         0.0000 Pyz      =         0.0000 
Lx       =        15.0000 Ly       =        15.0000 Lz       =       255.0510 
---------------- Step      152 ----- CPU =    103.0051 (sec) ----------------
TotEng   =   -288623.4438 PotEng   =   -288623.4438 KinEng   =         0.0000 
Temp     =         0.0000 E_vdwl   =   -181427.4894 Press    =      6198.6810 
Pxx      =      6954.6085 Pyy      =      6954.6085 Pzz      =      4686.8259 
Pxy      =         0.0000 Pxz      =         0.0000 Pyz      =         0.0000 
Lx       =        15.0000 Ly       =        15.0000 Lz       =       255.0510 
---------------- Step      153 ----- CPU =    103.6825 (sec) ----------------
TotEng   =   -288621.9034 PotEng   =   -288621.9034 KinEng   =         0.0000 
Temp     =         0.0000 E_vdwl   =   -181427.4894 Press    =      6200.4439 
Pxx      =      6956.3707 Pyy      =      6956.3707 Pzz      =      4688.5902 
Pxy      =         0.0000 Pxz      =        -0.0000 Pyz      =        -0.0000 
Lx       =        15.0000 Ly       =        15.0000 Lz       =       255.0510 
---------------- Step      154 ----- CPU =    104.3823 (sec) ----------------
TotEng   =   -288620.3708 PotEng   =   -288620.3708 KinEng   =         0.0000 
Temp     =         0.0000 E_vdwl   =   -181427.4894 Press    =      6202.2065 
Pxx      =      6958.1248 Pyy      =      6958.1248 Pzz      =      4690.3699 
Pxy      =         0.0000 Pxz      =         0.0000 Pyz      =         0.0000 
Lx       =        15.0000 Ly       =        15.0000 Lz       =       255.0510 
---------------- Step      155 ----- CPU =    105.0716 (sec) ----------------
TotEng   =   -288618.8334 PotEng   =   -288618.8334 KinEng   =         0.0000 
Temp     =         0.0000 E_vdwl   =   -181427.4894 Press    =      6203.9792 
Pxx      =      6959.8910 Pyy      =      6959.8910 Pzz      =      4692.1555 
Pxy      =         0.0000 Pxz      =         0.0000 Pyz      =        -0.0000 
Lx       =        15.0000 Ly       =        15.0000 Lz       =       255.0510 
---------------- Step      156 ----- CPU =    105.7593 (sec) ----------------
TotEng   =   -288617.3080 PotEng   =   -288617.3080 KinEng   =         0.0000 
Temp     =         0.0000 E_vdwl   =   -181427.4894 Press    =      6205.7007 
Pxx      =      6961.6050 Pyy      =      6961.6050 Pzz      =      4693.8921 
Pxy      =         0.0000 Pxz      =         0.0000 Pyz      =        -0.0000 
Lx       =        15.0000 Ly       =        15.0000 Lz       =       255.0510 
---------------- Step      157 ----- CPU =    106.4257 (sec) ----------------
TotEng   =   -288615.7890 PotEng   =   -288615.7890 KinEng   =         0.0000 
Temp     =         0.0000 E_vdwl   =   -181427.4894 Press    =      6207.4236 
Pxx      =      6963.3232 Pyy      =      6963.3232 Pzz      =      4695.6244 
Pxy      =        -0.0000 Pxz      =         0.0000 Pyz      =         0.0000 
Lx       =        15.0000 Ly       =        15.0000 Lz       =       255.0510 
---------------- Step      158 ----- CPU =    107.1289 (sec) ----------------
TotEng   =   -288614.2680 PotEng   =   -288614.2680 KinEng   =         0.0000 
Temp     =         0.0000 E_vdwl   =   -181427.4894 Press    =      6209.1712 
Pxx      =      6965.0696 Pyy      =      6965.0696 Pzz      =      4697.3744 
Pxy      =         0.0000 Pxz      =         0.0000 Pyz      =         0.0000 
Lx       =        15.0000 Ly       =        15.0000 Lz       =       255.0510 
---------------- Step      159 ----- CPU =    107.7934 (sec) ----------------
TotEng   =   -288612.7606 PotEng   =   -288612.7606 KinEng   =         0.0000 
Temp     =         0.0000 E_vdwl   =   -181427.4894 Press    =      6210.9055 
Pxx      =      6966.7975 Pyy      =      6966.7975 Pzz      =      4699.1213 
Pxy      =        -0.0000 Pxz      =        -0.0000 Pyz      =         0.0000 
Lx       =        15.0000 Ly       =        15.0000 Lz       =       255.0510 
---------------- Step      160 ----- CPU =    108.4570 (sec) ----------------
TotEng   =   -288611.2535 PotEng   =   -288611.2535 KinEng   =         0.0000 
Temp     =         0.0000 E_vdwl   =   -181427.4894 Press    =      6212.6282 
Pxx      =      6968.5125 Pyy      =      6968.5125 Pzz      =      4700.8596 
Pxy      =        -0.0000 Pxz      =         0.0000 Pyz      =         0.0000 
Lx       =        15.0000 Ly       =        15.0000 Lz       =       255.0510 
---------------- Step      161 ----- CPU =    109.1185 (sec) ----------------
TotEng   =   -288609.7535 PotEng   =   -288609.7535 KinEng   =         0.0000 
Temp     =         0.0000 E_vdwl   =   -181427.4894 Press    =      6214.3297 
Pxx      =      6970.2069 Pyy      =      6970.2069 Pzz      =      4702.5754 
Pxy      =         0.0000 Pxz      =         0.0000 Pyz      =        -0.0000 
Lx       =        15.0000 Ly       =        15.0000 Lz       =       255.0510 
---------------- Step      162 ----- CPU =    109.8081 (sec) ----------------
TotEng   =   -288608.2540 PotEng   =   -288608.2540 KinEng   =         0.0000 
Temp     =         0.0000 E_vdwl   =   -181427.4894 Press    =      6216.0372 
Pxx      =      6971.9097 Pyy      =      6971.9097 Pzz      =      4704.2923 
Pxy      =        -0.0000 Pxz      =         0.0000 Pyz      =        -0.0000 
Lx       =        15.0000 Ly       =        15.0000 Lz       =       255.0510 
---------------- Step      163 ----- CPU =    110.4928 (sec) ----------------
TotEng   =   -288606.7601 PotEng   =   -288606.7601 KinEng   =         0.0000 
Temp     =         0.0000 E_vdwl   =   -181427.4894 Press    =      6217.7447 
Pxx      =      6973.6152 Pyy      =      6973.6152 Pzz      =      4706.0039 
Pxy      =         0.0000 Pxz      =         0.0000 Pyz      =         0.0000 
Lx       =        15.0000 Ly       =        15.0000 Lz       =       255.0510 
---------------- Step      164 ----- CPU =    111.2441 (sec) ----------------
TotEng   =   -288605.2732 PotEng   =   -288605.2732 KinEng   =         0.0000 
Temp     =         0.0000 E_vdwl   =   -181427.4894 Press    =      6219.4476 
Pxx      =      6975.3120 Pyy      =      6975.3120 Pzz      =      4707.7188 
Pxy      =        -0.0000 Pxz      =         0.0000 Pyz      =         0.0000 
Lx       =        15.0000 Ly       =        15.0000 Lz       =       255.0510 
---------------- Step      165 ----- CPU =    111.8761 (sec) ----------------
TotEng   =   -288603.7812 PotEng   =   -288603.7812 KinEng   =         0.0000 
Temp     =         0.0000 E_vdwl   =   -181427.4894 Press    =      6221.1528 
Pxx      =      6977.0106 Pyy      =      6977.0106 Pzz      =      4709.4370 
Pxy      =        -0.0000 Pxz      =         0.0000 Pyz      =         0.0000 
Lx       =        15.0000 Ly       =        15.0000 Lz       =       255.0510 
---------------- Step      166 ----- CPU =    112.5665 (sec) ----------------
TotEng   =   -288602.3050 PotEng   =   -288602.3050 KinEng   =         0.0000 
Temp     =         0.0000 E_vdwl   =   -181427.4894 Press    =      6222.8461 
Pxx      =      6978.6975 Pyy      =      6978.6975 Pzz      =      4711.1431 
Pxy      =         0.0000 Pxz      =         0.0000 Pyz      =         0.0000 
Lx       =        15.0000 Ly       =        15.0000 Lz       =       255.0510 
---------------- Step      167 ----- CPU =    113.1981 (sec) ----------------
TotEng   =   -288600.8264 PotEng   =   -288600.8264 KinEng   =         0.0000 
Temp     =         0.0000 E_vdwl   =   -181427.4894 Press    =      6224.5239 
Pxx      =      6980.3714 Pyy      =      6980.3714 Pzz      =      4712.8289 
Pxy      =        -0.0000 Pxz      =        -0.0000 Pyz      =         0.0000 
Lx       =        15.0000 Ly       =        15.0000 Lz       =       255.0510 
---------------- Step      168 ----- CPU =    113.8945 (sec) ----------------
TotEng   =   -288599.3598 PotEng   =   -288599.3598 KinEng   =         0.0000 
Temp     =         0.0000 E_vdwl   =   -181427.4894 Press    =      6226.1761 
Pxx      =      6982.0195 Pyy      =      6982.0195 Pzz      =      4714.4895 
Pxy      =         0.0000 Pxz      =        -0.0000 Pyz      =         0.0000 
Lx       =        15.0000 Ly       =        15.0000 Lz       =       255.0510 
---------------- Step      169 ----- CPU =    114.5277 (sec) ----------------
TotEng   =   -288597.8947 PotEng   =   -288597.8947 KinEng   =         0.0000 
Temp     =         0.0000 E_vdwl   =   -181427.4894 Press    =      6227.8385 
Pxx      =      6983.6785 Pyy      =      6983.6785 Pzz      =      4716.1585 
Pxy      =         0.0000 Pxz      =         0.0000 Pyz      =        -0.0000 
Lx       =        15.0000 Ly       =        15.0000 Lz       =       255.0510 
---------------- Step      170 ----- CPU =    115.2388 (sec) ----------------
TotEng   =   -288596.4301 PotEng   =   -288596.4301 KinEng   =         0.0000 
Temp     =         0.0000 E_vdwl   =   -181427.4894 Press    =      6229.5279 
Pxx      =      6985.3626 Pyy      =      6985.3626 Pzz      =      4717.8584 
Pxy      =        -0.0000 Pxz      =        -0.0000 Pyz      =         0.0000 
Lx       =        15.0000 Ly       =        15.0000 Lz       =       255.0510 
---------------- Step      171 ----- CPU =    115.8764 (sec) ----------------
TotEng   =   -288594.9758 PotEng   =   -288594.9758 KinEng   =         0.0000 
Temp     =         0.0000 E_vdwl   =   -181427.4894 Press    =      6231.2180 
Pxx      =      6987.0461 Pyy      =      6987.0461 Pzz      =      4719.5619 
Pxy      =        -0.0000 Pxz      =         0.0000 Pyz      =         0.0000 
Lx       =        15.0000 Ly       =        15.0000 Lz       =       255.0510 
---------------- Step      172 ----- CPU =    116.5840 (sec) ----------------
TotEng   =   -288593.5195 PotEng   =   -288593.5195 KinEng   =         0.0000 
Temp     =         0.0000 E_vdwl   =   -181427.4894 Press    =      6232.8703 
Pxx      =      6988.6935 Pyy      =      6988.6935 Pzz      =      4721.2240 
Pxy      =        -0.0000 Pxz      =        -0.0000 Pyz      =         0.0000 
Lx       =        15.0000 Ly       =        15.0000 Lz       =       255.0510 
---------------- Step      173 ----- CPU =    117.2211 (sec) ----------------
TotEng   =   -288592.0667 PotEng   =   -288592.0667 KinEng   =         0.0000 
Temp     =         0.0000 E_vdwl   =   -181427.4894 Press    =      6234.5119 
Pxx      =      6990.3318 Pyy      =      6990.3318 Pzz      =      4722.8723 
Pxy      =         0.0000 Pxz      =        -0.0000 Pyz      =        -0.0000 
Lx       =        15.0000 Ly       =        15.0000 Lz       =       255.0510 
---------------- Step      174 ----- CPU =    117.9282 (sec) ----------------
TotEng   =   -288590.6252 PotEng   =   -288590.6252 KinEng   =         0.0000 
Temp     =         0.0000 E_vdwl   =   -181427.4894 Press    =      6236.1475 
Pxx      =      6991.9627 Pyy      =      6991.9627 Pzz      =      4724.5170 
Pxy      =        -0.0000 Pxz      =         0.0000 Pyz      =         0.0000 
Lx       =        15.0000 Ly       =        15.0000 Lz       =       255.0510 
---------------- Step      175 ----- CPU =    118.5956 (sec) ----------------
TotEng   =   -288589.1800 PotEng   =   -288589.1800 KinEng   =         0.0000 
Temp     =         0.0000 E_vdwl   =   -181427.4894 Press    =      6237.8003 
Pxx      =      6993.6103 Pyy      =      6993.6103 Pzz      =      4726.1803 
Pxy      =        -0.0000 Pxz      =        -0.0000 Pyz      =         0.0000 
Lx       =        15.0000 Ly       =        15.0000 Lz       =       255.0510 
---------------- Step      176 ----- CPU =    119.2866 (sec) ----------------
TotEng   =   -288587.7423 PotEng   =   -288587.7423 KinEng   =         0.0000 
Temp     =         0.0000 E_vdwl   =   -181427.4894 Press    =      6239.4538 
Pxx      =      6995.2584 Pyy      =      6995.2584 Pzz      =      4727.8445 
Pxy      =        -0.0000 Pxz      =        -0.0000 Pyz      =         0.0000 
Lx       =        15.0000 Ly       =        15.0000 Lz       =       255.0510 
---------------- Step      177 ----- CPU =    119.9076 (sec) ----------------
TotEng   =   -288586.3153 PotEng   =   -288586.3153 KinEng   =         0.0000 
Temp     =         0.0000 E_vdwl   =   -181427.4894 Press    =      6241.1101 
Pxx      =      6996.9105 Pyy      =      6996.9105 Pzz      =      4729.5093 
Pxy      =         0.0000 Pxz      =        -0.0000 Pyz      =        -0.0000 
Lx       =        15.0000 Ly       =        15.0000 Lz       =       255.0510 
---------------- Step      178 ----- CPU =    120.6174 (sec) ----------------
TotEng   =   -288584.8786 PotEng   =   -288584.8786 KinEng   =         0.0000 
Temp     =         0.0000 E_vdwl   =   -181427.4894 Press    =      6242.7414 
Pxx      =      6998.5371 Pyy      =      6998.5371 Pzz      =      4731.1501 
Pxy      =        -0.0000 Pxz      =         0.0000 Pyz      =        -0.0000 
Lx       =        15.0000 Ly       =        15.0000 Lz       =       255.0510 
---------------- Step      179 ----- CPU =    121.2505 (sec) ----------------
TotEng   =   -288583.4591 PotEng   =   -288583.4591 KinEng   =         0.0000 
Temp     =         0.0000 E_vdwl   =   -181427.4894 Press    =      6244.3492 
Pxx      =      7000.1413 Pyy      =      7000.1413 Pzz      =      4732.7650 
Pxy      =         0.0000 Pxz      =         0.0000 Pyz      =         0.0000 
Lx       =        15.0000 Ly       =        15.0000 Lz       =       255.0510 
---------------- Step      180 ----- CPU =    121.9675 (sec) ----------------
TotEng   =   -288582.0386 PotEng   =   -288582.0386 KinEng   =         0.0000 
Temp     =         0.0000 E_vdwl   =   -181427.4894 Press    =      6245.9521 
Pxx      =      7001.7392 Pyy      =      7001.7392 Pzz      =      4734.3777 
Pxy      =         0.0000 Pxz      =        -0.0000 Pyz      =         0.0000 
Lx       =        15.0000 Ly       =        15.0000 Lz       =       255.0510 
---------------- Step      181 ----- CPU =    122.6177 (sec) ----------------
TotEng   =   -288580.6212 PotEng   =   -288580.6212 KinEng   =         0.0000 
Temp     =         0.0000 E_vdwl   =   -181427.4894 Press    =      6247.5699 
Pxx      =      7003.3527 Pyy      =      7003.3527 Pzz      =      4736.0043 
Pxy      =        -0.0000 Pxz      =        -0.0000 Pyz      =         0.0000 
Lx       =        15.0000 Ly       =        15.0000 Lz       =       255.0510 
---------------- Step      182 ----- CPU =    123.2897 (sec) ----------------
TotEng   =   -288579.2048 PotEng   =   -288579.2048 KinEng   =         0.0000 
Temp     =         0.0000 E_vdwl   =   -181427.4894 Press    =      6249.2060 
Pxx      =      7004.9845 Pyy      =      7004.9845 Pzz      =      4737.6491 
Pxy      =        -0.0000 Pxz      =        -0.0000 Pyz      =        -0.0000 
Lx       =        15.0000 Ly       =        15.0000 Lz       =       255.0510 
---------------- Step      183 ----- CPU =    123.9900 (sec) ----------------
TotEng   =   -288577.7919 PotEng   =   -288577.7919 KinEng   =         0.0000 
Temp     =         0.0000 E_vdwl   =   -181427.4894 Press    =      6250.8398 
Pxx      =      7006.6148 Pyy      =      7006.6148 Pzz      =      4739.2898 
Pxy      =        -0.0000 Pxz      =         0.0000 Pyz      =         0.0000 
Lx       =        15.0000 Ly       =        15.0000 Lz       =       255.0510 
---------------- Step      184 ----- CPU =    124.6177 (sec) ----------------
TotEng   =   -288576.3875 PotEng   =   -288576.3875 KinEng   =         0.0000 
Temp     =         0.0000 E_vdwl   =   -181427.4894 Press    =      6252.4240 
Pxx      =      7008.1935 Pyy      =      7008.1935 Pzz      =      4740.8849 
Pxy      =         0.0000 Pxz      =         0.0000 Pyz      =         0.0000 
Lx       =        15.0000 Ly       =        15.0000 Lz       =       255.0510 
---------------- Step      185 ----- CPU =    125.2476 (sec) ----------------
TotEng   =   -288574.9914 PotEng   =   -288574.9914 KinEng   =         0.0000 
Temp     =         0.0000 E_vdwl   =   -181427.4894 Press    =      6253.9987 
Pxx      =      7009.7641 Pyy      =      7009.7641 Pzz      =      4742.4679 
Pxy      =        -0.0000 Pxz      =         0.0000 Pyz      =         0.0000 
Lx       =        15.0000 Ly       =        15.0000 Lz       =       255.0510 
---------------- Step      186 ----- CPU =    125.8704 (sec) ----------------
TotEng   =   -288573.5943 PotEng   =   -288573.5943 KinEng   =         0.0000 
Temp     =         0.0000 E_vdwl   =   -181427.4894 Press    =      6255.5868 
Pxx      =      7011.3487 Pyy      =      7011.3487 Pzz      =      4744.0629 
Pxy      =        -0.0000 Pxz      =        -0.0000 Pyz      =        -0.0000 
Lx       =        15.0000 Ly       =        15.0000 Lz       =       255.0510 
---------------- Step      187 ----- CPU =    126.4895 (sec) ----------------
TotEng   =   -288572.1925 PotEng   =   -288572.1925 KinEng   =         0.0000 
Temp     =         0.0000 E_vdwl   =   -181427.4894 Press    =      6257.1878 
Pxx      =      7012.9451 Pyy      =      7012.9451 Pzz      =      4745.6732 
Pxy      =        -0.0000 Pxz      =         0.0000 Pyz      =        -0.0000 
Lx       =        15.0000 Ly       =        15.0000 Lz       =       255.0510 
---------------- Step      188 ----- CPU =    127.1593 (sec) ----------------
TotEng   =   -288570.8041 PotEng   =   -288570.8041 KinEng   =         0.0000 
Temp     =         0.0000 E_vdwl   =   -181427.4894 Press    =      6258.7772 
Pxx      =      7014.5302 Pyy      =      7014.5302 Pzz      =      4747.2713 
Pxy      =        -0.0000 Pxz      =        -0.0000 Pyz      =         0.0000 
Lx       =        15.0000 Ly       =        15.0000 Lz       =       255.0510 
---------------- Step      189 ----- CPU =    127.8133 (sec) ----------------
TotEng   =   -288569.4163 PotEng   =   -288569.4163 KinEng   =         0.0000 
Temp     =         0.0000 E_vdwl   =   -181427.4894 Press    =      6260.3765 
Pxx      =      7016.1253 Pyy      =      7016.1253 Pzz      =      4748.8789 
Pxy      =         0.0000 Pxz      =         0.0000 Pyz      =        -0.0000 
Lx       =        15.0000 Ly       =        15.0000 Lz       =       255.0510 
---------------- Step      190 ----- CPU =    128.4424 (sec) ----------------
TotEng   =   -288568.0357 PotEng   =   -288568.0357 KinEng   =         0.0000 
Temp     =         0.0000 E_vdwl   =   -181427.4894 Press    =      6261.9900 
Pxx      =      7017.7339 Pyy      =      7017.7339 Pzz      =      4750.5022 
Pxy      =        -0.0000 Pxz      =         0.0000 Pyz      =        -0.0000 
Lx       =        15.0000 Ly       =        15.0000 Lz       =       255.0510 
---------------- Step      191 ----- CPU =    129.0705 (sec) ----------------
TotEng   =   -288566.6534 PotEng   =   -288566.6534 KinEng   =         0.0000 
Temp     =         0.0000 E_vdwl   =   -181427.4894 Press    =      6263.5714 
Pxx      =      7019.3103 Pyy      =      7019.3103 Pzz      =      4752.0935 
Pxy      =         0.0000 Pxz      =        -0.0000 Pyz      =         0.0000 
Lx       =        15.0000 Ly       =        15.0000 Lz       =       255.0510 
---------------- Step      192 ----- CPU =    129.7094 (sec) ----------------
TotEng   =   -288565.2758 PotEng   =   -288565.2758 KinEng   =         0.0000 
Temp     =         0.0000 E_vdwl   =   -181427.4894 Press    =      6265.0876 
Pxx      =      7020.8243 Pyy      =      7020.8243 Pzz      =      4753.6143 
Pxy      =         0.0000 Pxz      =        -0.0000 Pyz      =         0.0000 
Lx       =        15.0000 Ly       =        15.0000 Lz       =       255.0510 
---------------- Step      193 ----- CPU =    130.3363 (sec) ----------------
TotEng   =   -288563.9072 PotEng   =   -288563.9072 KinEng   =         0.0000 
Temp     =         0.0000 E_vdwl   =   -181427.4894 Press    =      6266.6253 
Pxx      =      7022.3571 Pyy      =      7022.3571 Pzz      =      4755.1619 
Pxy      =         0.0000 Pxz      =        -0.0000 Pyz      =        -0.0000 
Lx       =        15.0000 Ly       =        15.0000 Lz       =       255.0510 
---------------- Step      194 ----- CPU =    130.9985 (sec) ----------------
TotEng   =   -288562.5367 PotEng   =   -288562.5367 KinEng   =         0.0000 
Temp     =         0.0000 E_vdwl   =   -181427.4894 Press    =      6268.2145 
Pxx      =      7023.9420 Pyy      =      7023.9420 Pzz      =      4756.7595 
Pxy      =         0.0000 Pxz      =         0.0000 Pyz      =        -0.0000 
Lx       =        15.0000 Ly       =        15.0000 Lz       =       255.0510 
---------------- Step      195 ----- CPU =    131.6308 (sec) ----------------
TotEng   =   -288561.1675 PotEng   =   -288561.1675 KinEng   =         0.0000 
Temp     =         0.0000 E_vdwl   =   -181427.4894 Press    =      6269.8348 
Pxx      =      7025.5586 Pyy      =      7025.5586 Pzz      =      4758.3872 
Pxy      =         0.0000 Pxz      =         0.0000 Pyz      =         0.0000 
Lx       =        15.0000 Ly       =        15.0000 Lz       =       255.0510 
---------------- Step      196 ----- CPU =    132.3325 (sec) ----------------
TotEng   =   -288559.8097 PotEng   =   -288559.8097 KinEng   =         0.0000 
Temp     =         0.0000 E_vdwl   =   -181427.4894 Press    =      6271.3715 
Pxx      =      7027.0909 Pyy      =      7027.0909 Pzz      =      4759.9327 
Pxy      =         0.0000 Pxz      =        -0.0000 Pyz      =        -0.0000 
Lx       =        15.0000 Ly       =        15.0000 Lz       =       255.0510 
---------------- Step      197 ----- CPU =    132.9569 (sec) ----------------
TotEng   =   -288558.4436 PotEng   =   -288558.4436 KinEng   =         0.0000 
Temp     =         0.0000 E_vdwl   =   -181427.4894 Press    =      6272.8847 
Pxx      =      7028.6022 Pyy      =      7028.6022 Pzz      =      4761.4495 
Pxy      =         0.0000 Pxz      =        -0.0000 Pyz      =         0.0000 
Lx       =        15.0000 Ly       =        15.0000 Lz       =       255.0510 
---------------- Step      198 ----- CPU =    133.6320 (sec) ----------------
TotEng   =   -288557.0938 PotEng   =   -288557.0938 KinEng   =         0.0000 
Temp     =         0.0000 E_vdwl   =   -181427.4894 Press    =      6274.4092 
Pxx      =      7030.1210 Pyy      =      7030.1210 Pzz      =      4762.9856 
Pxy      =        -0.0000 Pxz      =         0.0000 Pyz      =        -0.0000 
Lx       =        15.0000 Ly       =        15.0000 Lz       =       255.0510 
---------------- Step      199 ----- CPU =    134.3244 (sec) ----------------
TotEng   =   -288555.7451 PotEng   =   -288555.7451 KinEng   =         0.0000 
Temp     =         0.0000 E_vdwl   =   -181427.4894 Press    =      6275.9804 
Pxx      =      7031.6887 Pyy      =      7031.6887 Pzz      =      4764.5636 
Pxy      =        -0.0000 Pxz      =         0.0000 Pyz      =         0.0000 
Lx       =        15.0000 Ly       =        15.0000 Lz       =       255.0510 
---------------- Step      200 ----- CPU =    134.9596 (sec) ----------------
TotEng   =   -288554.3974 PotEng   =   -288554.3974 KinEng   =         0.0000 
Temp     =         0.0000 E_vdwl   =   -181427.4894 Press    =      6277.5438 
Pxx      =      7033.2482 Pyy      =      7033.2482 Pzz      =      4766.1352 
Pxy      =        -0.0000 Pxz      =        -0.0000 Pyz      =         0.0000 
Lx       =        15.0000 Ly       =        15.0000 Lz       =       255.0510 
Loop time of 134.96 on 4 procs for 200 steps with 4050 atoms

Performance: 0.064 ns/day, 374.888 hours/ns, 1.482 timesteps/s
88.7% CPU use with 4 MPI tasks x no OpenMP threads

MPI task timing breakdown:
Section |  min time  |  avg time  |  max time  |%varavg| %total
---------------------------------------------------------------
Pair    | 104.96     | 110.24     | 115.92     |  49.4 | 81.68
Bond    | 6.1512e-05 | 7.1406e-05 | 8.4162e-05 |   0.0 |  0.00
Neigh   | 0          | 0          | 0          |   0.0 |  0.00
Comm    | 0.3273     | 6.2404     | 12.189     | 235.5 |  4.62
Output  | 0.057332   | 0.65806    | 1.7111     |  83.9 |  0.49
Modify  | 17.672     | 17.801     | 17.981     |   2.7 | 13.19
Other   |            | 0.02497    |            |       |  0.02

Nlocal:    1012.5 ave 1075 max 950 min
Histogram: 2 0 0 0 0 0 0 0 0 2
Nghost:    8210.5 ave 8246 max 8175 min
Histogram: 2 0 0 0 0 0 0 0 0 2
Neighs:    261350 ave 288100 max 234600 min
Histogram: 1 0 0 1 0 0 1 0 0 1
FullNghs:  522700 ave 556200 max 489200 min
Histogram: 2 0 0 0 0 0 0 0 0 2

Total # of neighbors = 2090800
Ave neighs/atom = 516.247
Ave special neighs/atom = 0
Neighbor list builds = 0
Dangerous builds = 0

Please see the log.cite file for references relevant to this simulation

Total wall time: 0:02:16
