LAMMPS (22 Aug 2018)
# Example of the 2-contacts example from J. Chem. Phys. 143, 054109 (2015)
# Here with LiS electrodes
units          real
atom_style     full
boundary       p p s

lattice        custom 3.0 a1 1.0 0.0 0.0 a2 0.0 1.0 0.0 a3 0.0 0.0 1.0                basis 0.0 0.0 0.0 basis 0.5 0.5 0.5
Lattice spacing in x,y,z = 3 3 3
region         boxl block 0 5 0 5 0 40 units lattice
region         boxr block 0 5 0 5 45 85 units lattice
region         box block 0 5 0 5 0 85 units lattice
create_box     2 box
Created orthogonal box = (0 0 0) to (15 15 255)
  1 by 1 by 4 MPI processor grid
create_atoms   1 region boxl basis 1 1 basis 2 2
Created 2025 atoms
  Time spent = 0.00179887 secs
create_atoms   2 region boxr basis 1 1 basis 2 2
Created 2025 atoms
  Time spent = 0.00179195 secs

pair_style     zero 1.0
pair_coeff     * *

#kspace_style   pppm 1.0e-4

group          Li type 1
2050 atoms in group Li
group          S type 2
2000 atoms in group S
group          LiS type 1 2
4050 atoms in group LiS
mass           1 6.9410
mass           2 32.0600

timestep       0.5

thermo_style   custom etotal pe ke temp evdwl press pxx pyy pzz pxy pxz pyz lx ly lz
thermo_modify  line multi flush yes
thermo         1

variable       ti equal 1.0

variable       z1min equal bound(LiS,zmin)
variable       z1max equal ${z1min}+4.0
variable       z1max equal 0+4.0
variable       z2max equal bound(LiS,zmax)
variable       z2min equal ${z2max}-4.0
variable       z2min equal 255-4.0

# Initialize the property
fix            0 all property/atom d_locpot d_lap
compute        0 all property/atom d_locpot d_lap

# Boundary conditions regions
region         bound1 block INF INF INF INF ${z1min} ${z1max} units box
region         bound1 block INF INF INF INF 0 ${z1max} units box
region         bound1 block INF INF INF INF 0 4 units box
group          z_left region bound1
75 atoms in group z_left
region         bound2 block INF INF INF INF ${z2min} ${z2max} units box
region         bound2 block INF INF INF INF 251 ${z2max} units box
region         bound2 block INF INF INF INF 251 255 units box
group          z_right region bound2
75 atoms in group z_right

dump           1 all custom 20 traj.dump id type x y z q c_0[1] c_0[2]

# Initialize local electrochemical potential
set            type 1 d_locpot 0.0
  2050 settings made for d_locpot
set            type 2 d_locpot 0.0
  2000 settings made for d_locpot

#fix            1 all qeq/reax 1 0.0 10.0 1.0e-6 param.qeq
fix            1 all qeq/shielded 1 10.0 1.0e-6 1000 param.qeq
fix            2 all echemdid 1 k 6.0 rc 4.0 norm 0.629967 nelec 10 z_left z_right volt 8.0
run            200
Neighbor list info ...
  update every 1 steps, delay 10 steps, check yes
  max neighbors/atom: 2000, page size: 100000
  master list distance cutoff = 3
  ghost atom cutoff = 3
  binsize = 1.5, bins = 10 10 171
  3 neighbor lists, perpetual/occasional/extra = 3 0 0
  (1) fix echemdid, perpetual
      attributes: full, newton on
      pair build: full/bin
      stencil: full/bin/3d
      bin: standard
  (2) pair zero, perpetual, half/full from (1)
      attributes: half, newton on
      pair build: halffull/newton
      stencil: none
      bin: none
  (3) fix qeq/shielded, perpetual, copy from (1)
      attributes: full, newton on
      pair build: copy
      stencil: none
      bin: none
Per MPI rank memory allocation (min/avg/max) = 11.68 | 11.7 | 11.71 Mbytes
---------------- Step        0 ----- CPU =      0.0000 (sec) ----------------
TotEng   =         0.0000 PotEng   =         0.0000 KinEng   =         0.0000 
Temp     =         0.0000 E_vdwl   =         0.0000 Press    =         0.0000 
Pxx      =         0.0000 Pyy      =         0.0000 Pzz      =         0.0000 
Pxy      =         0.0000 Pxz      =         0.0000 Pyz      =         0.0000 
Lx       =        15.0000 Ly       =        15.0000 Lz       =       255.0510 
---------------- Step        1 ----- CPU =      0.0453 (sec) ----------------
TotEng   =         0.0000 PotEng   =         0.0000 KinEng   =         0.0000 
Temp     =         0.0000 E_vdwl   =         0.0000 Press    =         0.0000 
Pxx      =         0.0000 Pyy      =         0.0000 Pzz      =         0.0000 
Pxy      =         0.0000 Pxz      =         0.0000 Pyz      =         0.0000 
Lx       =        15.0000 Ly       =        15.0000 Lz       =       255.0510 
---------------- Step        2 ----- CPU =      0.0778 (sec) ----------------
TotEng   =         0.0000 PotEng   =         0.0000 KinEng   =         0.0000 
Temp     =         0.0000 E_vdwl   =         0.0000 Press    =         0.0000 
Pxx      =         0.0000 Pyy      =         0.0000 Pzz      =         0.0000 
Pxy      =         0.0000 Pxz      =         0.0000 Pyz      =         0.0000 
Lx       =        15.0000 Ly       =        15.0000 Lz       =       255.0510 
---------------- Step        3 ----- CPU =      0.1231 (sec) ----------------
TotEng   =         0.0000 PotEng   =         0.0000 KinEng   =         0.0000 
Temp     =         0.0000 E_vdwl   =         0.0000 Press    =         0.0000 
Pxx      =         0.0000 Pyy      =         0.0000 Pzz      =         0.0000 
Pxy      =         0.0000 Pxz      =         0.0000 Pyz      =         0.0000 
Lx       =        15.0000 Ly       =        15.0000 Lz       =       255.0510 
---------------- Step        4 ----- CPU =      0.1584 (sec) ----------------
TotEng   =         0.0000 PotEng   =         0.0000 KinEng   =         0.0000 
Temp     =         0.0000 E_vdwl   =         0.0000 Press    =         0.0000 
Pxx      =         0.0000 Pyy      =         0.0000 Pzz      =         0.0000 
Pxy      =         0.0000 Pxz      =         0.0000 Pyz      =         0.0000 
Lx       =        15.0000 Ly       =        15.0000 Lz       =       255.0510 
---------------- Step        5 ----- CPU =      0.1955 (sec) ----------------
TotEng   =         0.0000 PotEng   =         0.0000 KinEng   =         0.0000 
Temp     =         0.0000 E_vdwl   =         0.0000 Press    =         0.0000 
Pxx      =         0.0000 Pyy      =         0.0000 Pzz      =         0.0000 
Pxy      =         0.0000 Pxz      =         0.0000 Pyz      =         0.0000 
Lx       =        15.0000 Ly       =        15.0000 Lz       =       255.0510 
---------------- Step        6 ----- CPU =      0.2276 (sec) ----------------
TotEng   =         0.0000 PotEng   =         0.0000 KinEng   =         0.0000 
Temp     =         0.0000 E_vdwl   =         0.0000 Press    =         0.0000 
Pxx      =         0.0000 Pyy      =         0.0000 Pzz      =         0.0000 
Pxy      =         0.0000 Pxz      =         0.0000 Pyz      =         0.0000 
Lx       =        15.0000 Ly       =        15.0000 Lz       =       255.0510 
---------------- Step        7 ----- CPU =      0.2608 (sec) ----------------
TotEng   =         0.0000 PotEng   =         0.0000 KinEng   =         0.0000 
Temp     =         0.0000 E_vdwl   =         0.0000 Press    =         0.0000 
Pxx      =         0.0000 Pyy      =         0.0000 Pzz      =         0.0000 
Pxy      =         0.0000 Pxz      =         0.0000 Pyz      =         0.0000 
Lx       =        15.0000 Ly       =        15.0000 Lz       =       255.0510 
---------------- Step        8 ----- CPU =      0.2902 (sec) ----------------
TotEng   =         0.0000 PotEng   =         0.0000 KinEng   =         0.0000 
Temp     =         0.0000 E_vdwl   =         0.0000 Press    =         0.0000 
Pxx      =         0.0000 Pyy      =         0.0000 Pzz      =         0.0000 
Pxy      =         0.0000 Pxz      =         0.0000 Pyz      =         0.0000 
Lx       =        15.0000 Ly       =        15.0000 Lz       =       255.0510 
---------------- Step        9 ----- CPU =      0.3206 (sec) ----------------
TotEng   =         0.0000 PotEng   =         0.0000 KinEng   =         0.0000 
Temp     =         0.0000 E_vdwl   =         0.0000 Press    =         0.0000 
Pxx      =         0.0000 Pyy      =         0.0000 Pzz      =         0.0000 
Pxy      =         0.0000 Pxz      =         0.0000 Pyz      =         0.0000 
Lx       =        15.0000 Ly       =        15.0000 Lz       =       255.0510 
---------------- Step       10 ----- CPU =      0.3506 (sec) ----------------
TotEng   =         0.0000 PotEng   =         0.0000 KinEng   =         0.0000 
Temp     =         0.0000 E_vdwl   =         0.0000 Press    =         0.0000 
Pxx      =         0.0000 Pyy      =         0.0000 Pzz      =         0.0000 
Pxy      =         0.0000 Pxz      =         0.0000 Pyz      =         0.0000 
Lx       =        15.0000 Ly       =        15.0000 Lz       =       255.0510 
---------------- Step       11 ----- CPU =      0.3782 (sec) ----------------
TotEng   =         0.0000 PotEng   =         0.0000 KinEng   =         0.0000 
Temp     =         0.0000 E_vdwl   =         0.0000 Press    =         0.0000 
Pxx      =         0.0000 Pyy      =         0.0000 Pzz      =         0.0000 
Pxy      =         0.0000 Pxz      =         0.0000 Pyz      =         0.0000 
Lx       =        15.0000 Ly       =        15.0000 Lz       =       255.0510 
---------------- Step       12 ----- CPU =      0.4180 (sec) ----------------
TotEng   =         0.0000 PotEng   =         0.0000 KinEng   =         0.0000 
Temp     =         0.0000 E_vdwl   =         0.0000 Press    =         0.0000 
Pxx      =         0.0000 Pyy      =         0.0000 Pzz      =         0.0000 
Pxy      =         0.0000 Pxz      =         0.0000 Pyz      =         0.0000 
Lx       =        15.0000 Ly       =        15.0000 Lz       =       255.0510 
---------------- Step       13 ----- CPU =      0.4496 (sec) ----------------
TotEng   =         0.0000 PotEng   =         0.0000 KinEng   =         0.0000 
Temp     =         0.0000 E_vdwl   =         0.0000 Press    =         0.0000 
Pxx      =         0.0000 Pyy      =         0.0000 Pzz      =         0.0000 
Pxy      =         0.0000 Pxz      =         0.0000 Pyz      =         0.0000 
Lx       =        15.0000 Ly       =        15.0000 Lz       =       255.0510 
---------------- Step       14 ----- CPU =      0.4678 (sec) ----------------
TotEng   =         0.0000 PotEng   =         0.0000 KinEng   =         0.0000 
Temp     =         0.0000 E_vdwl   =         0.0000 Press    =         0.0000 
Pxx      =         0.0000 Pyy      =         0.0000 Pzz      =         0.0000 
Pxy      =         0.0000 Pxz      =         0.0000 Pyz      =         0.0000 
Lx       =        15.0000 Ly       =        15.0000 Lz       =       255.0510 
---------------- Step       15 ----- CPU =      0.4971 (sec) ----------------
TotEng   =         0.0000 PotEng   =         0.0000 KinEng   =         0.0000 
Temp     =         0.0000 E_vdwl   =         0.0000 Press    =         0.0000 
Pxx      =         0.0000 Pyy      =         0.0000 Pzz      =         0.0000 
Pxy      =         0.0000 Pxz      =         0.0000 Pyz      =         0.0000 
Lx       =        15.0000 Ly       =        15.0000 Lz       =       255.0510 
---------------- Step       16 ----- CPU =      0.5401 (sec) ----------------
TotEng   =         0.0000 PotEng   =         0.0000 KinEng   =         0.0000 
Temp     =         0.0000 E_vdwl   =         0.0000 Press    =         0.0000 
Pxx      =         0.0000 Pyy      =         0.0000 Pzz      =         0.0000 
Pxy      =         0.0000 Pxz      =         0.0000 Pyz      =         0.0000 
Lx       =        15.0000 Ly       =        15.0000 Lz       =       255.0510 
---------------- Step       17 ----- CPU =      0.5674 (sec) ----------------
TotEng   =         0.0000 PotEng   =         0.0000 KinEng   =         0.0000 
Temp     =         0.0000 E_vdwl   =         0.0000 Press    =         0.0000 
Pxx      =         0.0000 Pyy      =         0.0000 Pzz      =         0.0000 
Pxy      =         0.0000 Pxz      =         0.0000 Pyz      =         0.0000 
Lx       =        15.0000 Ly       =        15.0000 Lz       =       255.0510 
---------------- Step       18 ----- CPU =      0.5956 (sec) ----------------
TotEng   =         0.0000 PotEng   =         0.0000 KinEng   =         0.0000 
Temp     =         0.0000 E_vdwl   =         0.0000 Press    =         0.0000 
Pxx      =         0.0000 Pyy      =         0.0000 Pzz      =         0.0000 
Pxy      =         0.0000 Pxz      =         0.0000 Pyz      =         0.0000 
Lx       =        15.0000 Ly       =        15.0000 Lz       =       255.0510 
---------------- Step       19 ----- CPU =      0.6171 (sec) ----------------
TotEng   =         0.0000 PotEng   =         0.0000 KinEng   =         0.0000 
Temp     =         0.0000 E_vdwl   =         0.0000 Press    =         0.0000 
Pxx      =         0.0000 Pyy      =         0.0000 Pzz      =         0.0000 
Pxy      =         0.0000 Pxz      =         0.0000 Pyz      =         0.0000 
Lx       =        15.0000 Ly       =        15.0000 Lz       =       255.0510 
---------------- Step       20 ----- CPU =      0.6550 (sec) ----------------
TotEng   =         0.0000 PotEng   =         0.0000 KinEng   =         0.0000 
Temp     =         0.0000 E_vdwl   =         0.0000 Press    =         0.0000 
Pxx      =         0.0000 Pyy      =         0.0000 Pzz      =         0.0000 
Pxy      =         0.0000 Pxz      =         0.0000 Pyz      =         0.0000 
Lx       =        15.0000 Ly       =        15.0000 Lz       =       255.0510 
---------------- Step       21 ----- CPU =      0.6822 (sec) ----------------
TotEng   =         0.0000 PotEng   =         0.0000 KinEng   =         0.0000 
Temp     =         0.0000 E_vdwl   =         0.0000 Press    =         0.0000 
Pxx      =         0.0000 Pyy      =         0.0000 Pzz      =         0.0000 
Pxy      =         0.0000 Pxz      =         0.0000 Pyz      =         0.0000 
Lx       =        15.0000 Ly       =        15.0000 Lz       =       255.0510 
---------------- Step       22 ----- CPU =      0.7085 (sec) ----------------
TotEng   =         0.0000 PotEng   =         0.0000 KinEng   =         0.0000 
Temp     =         0.0000 E_vdwl   =         0.0000 Press    =         0.0000 
Pxx      =         0.0000 Pyy      =         0.0000 Pzz      =         0.0000 
Pxy      =         0.0000 Pxz      =         0.0000 Pyz      =         0.0000 
Lx       =        15.0000 Ly       =        15.0000 Lz       =       255.0510 
---------------- Step       23 ----- CPU =      0.7374 (sec) ----------------
TotEng   =         0.0000 PotEng   =         0.0000 KinEng   =         0.0000 
Temp     =         0.0000 E_vdwl   =         0.0000 Press    =         0.0000 
Pxx      =         0.0000 Pyy      =         0.0000 Pzz      =         0.0000 
Pxy      =         0.0000 Pxz      =         0.0000 Pyz      =         0.0000 
Lx       =        15.0000 Ly       =        15.0000 Lz       =       255.0510 
---------------- Step       24 ----- CPU =      0.7702 (sec) ----------------
TotEng   =         0.0000 PotEng   =         0.0000 KinEng   =         0.0000 
Temp     =         0.0000 E_vdwl   =         0.0000 Press    =         0.0000 
Pxx      =         0.0000 Pyy      =         0.0000 Pzz      =         0.0000 
Pxy      =         0.0000 Pxz      =         0.0000 Pyz      =         0.0000 
Lx       =        15.0000 Ly       =        15.0000 Lz       =       255.0510 
---------------- Step       25 ----- CPU =      0.7971 (sec) ----------------
TotEng   =         0.0000 PotEng   =         0.0000 KinEng   =         0.0000 
Temp     =         0.0000 E_vdwl   =         0.0000 Press    =         0.0000 
Pxx      =         0.0000 Pyy      =         0.0000 Pzz      =         0.0000 
Pxy      =         0.0000 Pxz      =         0.0000 Pyz      =         0.0000 
Lx       =        15.0000 Ly       =        15.0000 Lz       =       255.0510 
---------------- Step       26 ----- CPU =      0.8179 (sec) ----------------
TotEng   =         0.0000 PotEng   =         0.0000 KinEng   =         0.0000 
Temp     =         0.0000 E_vdwl   =         0.0000 Press    =         0.0000 
Pxx      =         0.0000 Pyy      =         0.0000 Pzz      =         0.0000 
Pxy      =         0.0000 Pxz      =         0.0000 Pyz      =         0.0000 
Lx       =        15.0000 Ly       =        15.0000 Lz       =       255.0510 
---------------- Step       27 ----- CPU =      0.8471 (sec) ----------------
TotEng   =         0.0000 PotEng   =         0.0000 KinEng   =         0.0000 
Temp     =         0.0000 E_vdwl   =         0.0000 Press    =         0.0000 
Pxx      =         0.0000 Pyy      =         0.0000 Pzz      =         0.0000 
Pxy      =         0.0000 Pxz      =         0.0000 Pyz      =         0.0000 
Lx       =        15.0000 Ly       =        15.0000 Lz       =       255.0510 
---------------- Step       28 ----- CPU =      0.8762 (sec) ----------------
TotEng   =         0.0000 PotEng   =         0.0000 KinEng   =         0.0000 
Temp     =         0.0000 E_vdwl   =         0.0000 Press    =         0.0000 
Pxx      =         0.0000 Pyy      =         0.0000 Pzz      =         0.0000 
Pxy      =         0.0000 Pxz      =         0.0000 Pyz      =         0.0000 
Lx       =        15.0000 Ly       =        15.0000 Lz       =       255.0510 
---------------- Step       29 ----- CPU =      0.9038 (sec) ----------------
TotEng   =         0.0000 PotEng   =         0.0000 KinEng   =         0.0000 
Temp     =         0.0000 E_vdwl   =         0.0000 Press    =         0.0000 
Pxx      =         0.0000 Pyy      =         0.0000 Pzz      =         0.0000 
Pxy      =         0.0000 Pxz      =         0.0000 Pyz      =         0.0000 
Lx       =        15.0000 Ly       =        15.0000 Lz       =       255.0510 
---------------- Step       30 ----- CPU =      0.9362 (sec) ----------------
TotEng   =         0.0000 PotEng   =         0.0000 KinEng   =         0.0000 
Temp     =         0.0000 E_vdwl   =         0.0000 Press    =         0.0000 
Pxx      =         0.0000 Pyy      =         0.0000 Pzz      =         0.0000 
Pxy      =         0.0000 Pxz      =         0.0000 Pyz      =         0.0000 
Lx       =        15.0000 Ly       =        15.0000 Lz       =       255.0510 
---------------- Step       31 ----- CPU =      0.9696 (sec) ----------------
TotEng   =         0.0000 PotEng   =         0.0000 KinEng   =         0.0000 
Temp     =         0.0000 E_vdwl   =         0.0000 Press    =         0.0000 
Pxx      =         0.0000 Pyy      =         0.0000 Pzz      =         0.0000 
Pxy      =         0.0000 Pxz      =         0.0000 Pyz      =         0.0000 
Lx       =        15.0000 Ly       =        15.0000 Lz       =       255.0510 
---------------- Step       32 ----- CPU =      1.0044 (sec) ----------------
TotEng   =         0.0000 PotEng   =         0.0000 KinEng   =         0.0000 
Temp     =         0.0000 E_vdwl   =         0.0000 Press    =         0.0000 
Pxx      =         0.0000 Pyy      =         0.0000 Pzz      =         0.0000 
Pxy      =         0.0000 Pxz      =         0.0000 Pyz      =         0.0000 
Lx       =        15.0000 Ly       =        15.0000 Lz       =       255.0510 
---------------- Step       33 ----- CPU =      1.0305 (sec) ----------------
TotEng   =         0.0000 PotEng   =         0.0000 KinEng   =         0.0000 
Temp     =         0.0000 E_vdwl   =         0.0000 Press    =         0.0000 
Pxx      =         0.0000 Pyy      =         0.0000 Pzz      =         0.0000 
Pxy      =         0.0000 Pxz      =         0.0000 Pyz      =         0.0000 
Lx       =        15.0000 Ly       =        15.0000 Lz       =       255.0510 
---------------- Step       34 ----- CPU =      1.0522 (sec) ----------------
TotEng   =         0.0000 PotEng   =         0.0000 KinEng   =         0.0000 
Temp     =         0.0000 E_vdwl   =         0.0000 Press    =         0.0000 
Pxx      =         0.0000 Pyy      =         0.0000 Pzz      =         0.0000 
Pxy      =         0.0000 Pxz      =         0.0000 Pyz      =         0.0000 
Lx       =        15.0000 Ly       =        15.0000 Lz       =       255.0510 
---------------- Step       35 ----- CPU =      1.0825 (sec) ----------------
TotEng   =         0.0000 PotEng   =         0.0000 KinEng   =         0.0000 
Temp     =         0.0000 E_vdwl   =         0.0000 Press    =         0.0000 
Pxx      =         0.0000 Pyy      =         0.0000 Pzz      =         0.0000 
Pxy      =         0.0000 Pxz      =         0.0000 Pyz      =         0.0000 
Lx       =        15.0000 Ly       =        15.0000 Lz       =       255.0510 
---------------- Step       36 ----- CPU =      1.1163 (sec) ----------------
TotEng   =         0.0000 PotEng   =         0.0000 KinEng   =         0.0000 
Temp     =         0.0000 E_vdwl   =         0.0000 Press    =         0.0000 
Pxx      =         0.0000 Pyy      =         0.0000 Pzz      =         0.0000 
Pxy      =         0.0000 Pxz      =         0.0000 Pyz      =         0.0000 
Lx       =        15.0000 Ly       =        15.0000 Lz       =       255.0510 
---------------- Step       37 ----- CPU =      1.1455 (sec) ----------------
TotEng   =         0.0000 PotEng   =         0.0000 KinEng   =         0.0000 
Temp     =         0.0000 E_vdwl   =         0.0000 Press    =         0.0000 
Pxx      =         0.0000 Pyy      =         0.0000 Pzz      =         0.0000 
Pxy      =         0.0000 Pxz      =         0.0000 Pyz      =         0.0000 
Lx       =        15.0000 Ly       =        15.0000 Lz       =       255.0510 
---------------- Step       38 ----- CPU =      1.1747 (sec) ----------------
TotEng   =         0.0000 PotEng   =         0.0000 KinEng   =         0.0000 
Temp     =         0.0000 E_vdwl   =         0.0000 Press    =         0.0000 
Pxx      =         0.0000 Pyy      =         0.0000 Pzz      =         0.0000 
Pxy      =         0.0000 Pxz      =         0.0000 Pyz      =         0.0000 
Lx       =        15.0000 Ly       =        15.0000 Lz       =       255.0510 
---------------- Step       39 ----- CPU =      1.2024 (sec) ----------------
TotEng   =         0.0000 PotEng   =         0.0000 KinEng   =         0.0000 
Temp     =         0.0000 E_vdwl   =         0.0000 Press    =         0.0000 
Pxx      =         0.0000 Pyy      =         0.0000 Pzz      =         0.0000 
Pxy      =         0.0000 Pxz      =         0.0000 Pyz      =         0.0000 
Lx       =        15.0000 Ly       =        15.0000 Lz       =       255.0510 
---------------- Step       40 ----- CPU =      1.2555 (sec) ----------------
TotEng   =         0.0000 PotEng   =         0.0000 KinEng   =         0.0000 
Temp     =         0.0000 E_vdwl   =         0.0000 Press    =         0.0000 
Pxx      =         0.0000 Pyy      =         0.0000 Pzz      =         0.0000 
Pxy      =         0.0000 Pxz      =         0.0000 Pyz      =         0.0000 
Lx       =        15.0000 Ly       =        15.0000 Lz       =       255.0510 
---------------- Step       41 ----- CPU =      1.2826 (sec) ----------------
TotEng   =         0.0000 PotEng   =         0.0000 KinEng   =         0.0000 
Temp     =         0.0000 E_vdwl   =         0.0000 Press    =         0.0000 
Pxx      =         0.0000 Pyy      =         0.0000 Pzz      =         0.0000 
Pxy      =         0.0000 Pxz      =         0.0000 Pyz      =         0.0000 
Lx       =        15.0000 Ly       =        15.0000 Lz       =       255.0510 
---------------- Step       42 ----- CPU =      1.3225 (sec) ----------------
TotEng   =         0.0000 PotEng   =         0.0000 KinEng   =         0.0000 
Temp     =         0.0000 E_vdwl   =         0.0000 Press    =         0.0000 
Pxx      =         0.0000 Pyy      =         0.0000 Pzz      =         0.0000 
Pxy      =         0.0000 Pxz      =         0.0000 Pyz      =         0.0000 
Lx       =        15.0000 Ly       =        15.0000 Lz       =       255.0510 
---------------- Step       43 ----- CPU =      1.3440 (sec) ----------------
TotEng   =         0.0000 PotEng   =         0.0000 KinEng   =         0.0000 
Temp     =         0.0000 E_vdwl   =         0.0000 Press    =         0.0000 
Pxx      =         0.0000 Pyy      =         0.0000 Pzz      =         0.0000 
Pxy      =         0.0000 Pxz      =         0.0000 Pyz      =         0.0000 
Lx       =        15.0000 Ly       =        15.0000 Lz       =       255.0510 
---------------- Step       44 ----- CPU =      1.3672 (sec) ----------------
TotEng   =         0.0000 PotEng   =         0.0000 KinEng   =         0.0000 
Temp     =         0.0000 E_vdwl   =         0.0000 Press    =         0.0000 
Pxx      =         0.0000 Pyy      =         0.0000 Pzz      =         0.0000 
Pxy      =         0.0000 Pxz      =         0.0000 Pyz      =         0.0000 
Lx       =        15.0000 Ly       =        15.0000 Lz       =       255.0510 
---------------- Step       45 ----- CPU =      1.4060 (sec) ----------------
TotEng   =         0.0000 PotEng   =         0.0000 KinEng   =         0.0000 
Temp     =         0.0000 E_vdwl   =         0.0000 Press    =         0.0000 
Pxx      =         0.0000 Pyy      =         0.0000 Pzz      =         0.0000 
Pxy      =         0.0000 Pxz      =         0.0000 Pyz      =         0.0000 
Lx       =        15.0000 Ly       =        15.0000 Lz       =       255.0510 
---------------- Step       46 ----- CPU =      1.4444 (sec) ----------------
TotEng   =         0.0000 PotEng   =         0.0000 KinEng   =         0.0000 
Temp     =         0.0000 E_vdwl   =         0.0000 Press    =         0.0000 
Pxx      =         0.0000 Pyy      =         0.0000 Pzz      =         0.0000 
Pxy      =         0.0000 Pxz      =         0.0000 Pyz      =         0.0000 
Lx       =        15.0000 Ly       =        15.0000 Lz       =       255.0510 
---------------- Step       47 ----- CPU =      1.4724 (sec) ----------------
TotEng   =         0.0000 PotEng   =         0.0000 KinEng   =         0.0000 
Temp     =         0.0000 E_vdwl   =         0.0000 Press    =         0.0000 
Pxx      =         0.0000 Pyy      =         0.0000 Pzz      =         0.0000 
Pxy      =         0.0000 Pxz      =         0.0000 Pyz      =         0.0000 
Lx       =        15.0000 Ly       =        15.0000 Lz       =       255.0510 
---------------- Step       48 ----- CPU =      1.5211 (sec) ----------------
TotEng   =         0.0000 PotEng   =         0.0000 KinEng   =         0.0000 
Temp     =         0.0000 E_vdwl   =         0.0000 Press    =         0.0000 
Pxx      =         0.0000 Pyy      =         0.0000 Pzz      =         0.0000 
Pxy      =         0.0000 Pxz      =         0.0000 Pyz      =         0.0000 
Lx       =        15.0000 Ly       =        15.0000 Lz       =       255.0510 
---------------- Step       49 ----- CPU =      1.5691 (sec) ----------------
TotEng   =         0.0000 PotEng   =         0.0000 KinEng   =         0.0000 
Temp     =         0.0000 E_vdwl   =         0.0000 Press    =         0.0000 
Pxx      =         0.0000 Pyy      =         0.0000 Pzz      =         0.0000 
Pxy      =         0.0000 Pxz      =         0.0000 Pyz      =         0.0000 
Lx       =        15.0000 Ly       =        15.0000 Lz       =       255.0510 
---------------- Step       50 ----- CPU =      1.6228 (sec) ----------------
TotEng   =         0.0000 PotEng   =         0.0000 KinEng   =         0.0000 
Temp     =         0.0000 E_vdwl   =         0.0000 Press    =         0.0000 
Pxx      =         0.0000 Pyy      =         0.0000 Pzz      =         0.0000 
Pxy      =         0.0000 Pxz      =         0.0000 Pyz      =         0.0000 
Lx       =        15.0000 Ly       =        15.0000 Lz       =       255.0510 
---------------- Step       51 ----- CPU =      1.6772 (sec) ----------------
TotEng   =         0.0000 PotEng   =         0.0000 KinEng   =         0.0000 
Temp     =         0.0000 E_vdwl   =         0.0000 Press    =         0.0000 
Pxx      =         0.0000 Pyy      =         0.0000 Pzz      =         0.0000 
Pxy      =         0.0000 Pxz      =         0.0000 Pyz      =         0.0000 
Lx       =        15.0000 Ly       =        15.0000 Lz       =       255.0510 
---------------- Step       52 ----- CPU =      1.7213 (sec) ----------------
TotEng   =         0.0000 PotEng   =         0.0000 KinEng   =         0.0000 
Temp     =         0.0000 E_vdwl   =         0.0000 Press    =         0.0000 
Pxx      =         0.0000 Pyy      =         0.0000 Pzz      =         0.0000 
Pxy      =         0.0000 Pxz      =         0.0000 Pyz      =         0.0000 
Lx       =        15.0000 Ly       =        15.0000 Lz       =       255.0510 
---------------- Step       53 ----- CPU =      1.7677 (sec) ----------------
TotEng   =         0.0000 PotEng   =         0.0000 KinEng   =         0.0000 
Temp     =         0.0000 E_vdwl   =         0.0000 Press    =         0.0000 
Pxx      =         0.0000 Pyy      =         0.0000 Pzz      =         0.0000 
Pxy      =         0.0000 Pxz      =         0.0000 Pyz      =         0.0000 
Lx       =        15.0000 Ly       =        15.0000 Lz       =       255.0510 
---------------- Step       54 ----- CPU =      1.8035 (sec) ----------------
TotEng   =         0.0000 PotEng   =         0.0000 KinEng   =         0.0000 
Temp     =         0.0000 E_vdwl   =         0.0000 Press    =         0.0000 
Pxx      =         0.0000 Pyy      =         0.0000 Pzz      =         0.0000 
Pxy      =         0.0000 Pxz      =         0.0000 Pyz      =         0.0000 
Lx       =        15.0000 Ly       =        15.0000 Lz       =       255.0510 
---------------- Step       55 ----- CPU =      1.8357 (sec) ----------------
TotEng   =         0.0000 PotEng   =         0.0000 KinEng   =         0.0000 
Temp     =         0.0000 E_vdwl   =         0.0000 Press    =         0.0000 
Pxx      =         0.0000 Pyy      =         0.0000 Pzz      =         0.0000 
Pxy      =         0.0000 Pxz      =         0.0000 Pyz      =         0.0000 
Lx       =        15.0000 Ly       =        15.0000 Lz       =       255.0510 
---------------- Step       56 ----- CPU =      1.8631 (sec) ----------------
TotEng   =         0.0000 PotEng   =         0.0000 KinEng   =         0.0000 
Temp     =         0.0000 E_vdwl   =         0.0000 Press    =         0.0000 
Pxx      =         0.0000 Pyy      =         0.0000 Pzz      =         0.0000 
Pxy      =         0.0000 Pxz      =         0.0000 Pyz      =         0.0000 
Lx       =        15.0000 Ly       =        15.0000 Lz       =       255.0510 
---------------- Step       57 ----- CPU =      1.8905 (sec) ----------------
TotEng   =         0.0000 PotEng   =         0.0000 KinEng   =         0.0000 
Temp     =         0.0000 E_vdwl   =         0.0000 Press    =         0.0000 
Pxx      =         0.0000 Pyy      =         0.0000 Pzz      =         0.0000 
Pxy      =         0.0000 Pxz      =         0.0000 Pyz      =         0.0000 
Lx       =        15.0000 Ly       =        15.0000 Lz       =       255.0510 
---------------- Step       58 ----- CPU =      1.9231 (sec) ----------------
TotEng   =         0.0000 PotEng   =         0.0000 KinEng   =         0.0000 
Temp     =         0.0000 E_vdwl   =         0.0000 Press    =         0.0000 
Pxx      =         0.0000 Pyy      =         0.0000 Pzz      =         0.0000 
Pxy      =         0.0000 Pxz      =         0.0000 Pyz      =         0.0000 
Lx       =        15.0000 Ly       =        15.0000 Lz       =       255.0510 
---------------- Step       59 ----- CPU =      1.9591 (sec) ----------------
TotEng   =         0.0000 PotEng   =         0.0000 KinEng   =         0.0000 
Temp     =         0.0000 E_vdwl   =         0.0000 Press    =         0.0000 
Pxx      =         0.0000 Pyy      =         0.0000 Pzz      =         0.0000 
Pxy      =         0.0000 Pxz      =         0.0000 Pyz      =         0.0000 
Lx       =        15.0000 Ly       =        15.0000 Lz       =       255.0510 
---------------- Step       60 ----- CPU =      1.9874 (sec) ----------------
TotEng   =         0.0000 PotEng   =         0.0000 KinEng   =         0.0000 
Temp     =         0.0000 E_vdwl   =         0.0000 Press    =         0.0000 
Pxx      =         0.0000 Pyy      =         0.0000 Pzz      =         0.0000 
Pxy      =         0.0000 Pxz      =         0.0000 Pyz      =         0.0000 
Lx       =        15.0000 Ly       =        15.0000 Lz       =       255.0510 
---------------- Step       61 ----- CPU =      2.0160 (sec) ----------------
TotEng   =         0.0000 PotEng   =         0.0000 KinEng   =         0.0000 
Temp     =         0.0000 E_vdwl   =         0.0000 Press    =         0.0000 
Pxx      =         0.0000 Pyy      =         0.0000 Pzz      =         0.0000 
Pxy      =         0.0000 Pxz      =         0.0000 Pyz      =         0.0000 
Lx       =        15.0000 Ly       =        15.0000 Lz       =       255.0510 
---------------- Step       62 ----- CPU =      2.0478 (sec) ----------------
TotEng   =         0.0000 PotEng   =         0.0000 KinEng   =         0.0000 
Temp     =         0.0000 E_vdwl   =         0.0000 Press    =         0.0000 
Pxx      =         0.0000 Pyy      =         0.0000 Pzz      =         0.0000 
Pxy      =         0.0000 Pxz      =         0.0000 Pyz      =         0.0000 
Lx       =        15.0000 Ly       =        15.0000 Lz       =       255.0510 
---------------- Step       63 ----- CPU =      2.0853 (sec) ----------------
TotEng   =         0.0000 PotEng   =         0.0000 KinEng   =         0.0000 
Temp     =         0.0000 E_vdwl   =         0.0000 Press    =         0.0000 
Pxx      =         0.0000 Pyy      =         0.0000 Pzz      =         0.0000 
Pxy      =         0.0000 Pxz      =         0.0000 Pyz      =         0.0000 
Lx       =        15.0000 Ly       =        15.0000 Lz       =       255.0510 
---------------- Step       64 ----- CPU =      2.1181 (sec) ----------------
TotEng   =         0.0000 PotEng   =         0.0000 KinEng   =         0.0000 
Temp     =         0.0000 E_vdwl   =         0.0000 Press    =         0.0000 
Pxx      =         0.0000 Pyy      =         0.0000 Pzz      =         0.0000 
Pxy      =         0.0000 Pxz      =         0.0000 Pyz      =         0.0000 
Lx       =        15.0000 Ly       =        15.0000 Lz       =       255.0510 
---------------- Step       65 ----- CPU =      2.1448 (sec) ----------------
TotEng   =         0.0000 PotEng   =         0.0000 KinEng   =         0.0000 
Temp     =         0.0000 E_vdwl   =         0.0000 Press    =         0.0000 
Pxx      =         0.0000 Pyy      =         0.0000 Pzz      =         0.0000 
Pxy      =         0.0000 Pxz      =         0.0000 Pyz      =         0.0000 
Lx       =        15.0000 Ly       =        15.0000 Lz       =       255.0510 
---------------- Step       66 ----- CPU =      2.1739 (sec) ----------------
TotEng   =         0.0000 PotEng   =         0.0000 KinEng   =         0.0000 
Temp     =         0.0000 E_vdwl   =         0.0000 Press    =         0.0000 
Pxx      =         0.0000 Pyy      =         0.0000 Pzz      =         0.0000 
Pxy      =         0.0000 Pxz      =         0.0000 Pyz      =         0.0000 
Lx       =        15.0000 Ly       =        15.0000 Lz       =       255.0510 
---------------- Step       67 ----- CPU =      2.2050 (sec) ----------------
TotEng   =         0.0000 PotEng   =         0.0000 KinEng   =         0.0000 
Temp     =         0.0000 E_vdwl   =         0.0000 Press    =         0.0000 
Pxx      =         0.0000 Pyy      =         0.0000 Pzz      =         0.0000 
Pxy      =         0.0000 Pxz      =         0.0000 Pyz      =         0.0000 
Lx       =        15.0000 Ly       =        15.0000 Lz       =       255.0510 
---------------- Step       68 ----- CPU =      2.2284 (sec) ----------------
TotEng   =         0.0000 PotEng   =         0.0000 KinEng   =         0.0000 
Temp     =         0.0000 E_vdwl   =         0.0000 Press    =         0.0000 
Pxx      =         0.0000 Pyy      =         0.0000 Pzz      =         0.0000 
Pxy      =         0.0000 Pxz      =         0.0000 Pyz      =         0.0000 
Lx       =        15.0000 Ly       =        15.0000 Lz       =       255.0510 
---------------- Step       69 ----- CPU =      2.2678 (sec) ----------------
TotEng   =         0.0000 PotEng   =         0.0000 KinEng   =         0.0000 
Temp     =         0.0000 E_vdwl   =         0.0000 Press    =         0.0000 
Pxx      =         0.0000 Pyy      =         0.0000 Pzz      =         0.0000 
Pxy      =         0.0000 Pxz      =         0.0000 Pyz      =         0.0000 
Lx       =        15.0000 Ly       =        15.0000 Lz       =       255.0510 
---------------- Step       70 ----- CPU =      2.3146 (sec) ----------------
TotEng   =         0.0000 PotEng   =         0.0000 KinEng   =         0.0000 
Temp     =         0.0000 E_vdwl   =         0.0000 Press    =         0.0000 
Pxx      =         0.0000 Pyy      =         0.0000 Pzz      =         0.0000 
Pxy      =         0.0000 Pxz      =         0.0000 Pyz      =         0.0000 
Lx       =        15.0000 Ly       =        15.0000 Lz       =       255.0510 
---------------- Step       71 ----- CPU =      2.3553 (sec) ----------------
TotEng   =         0.0000 PotEng   =         0.0000 KinEng   =         0.0000 
Temp     =         0.0000 E_vdwl   =         0.0000 Press    =         0.0000 
Pxx      =         0.0000 Pyy      =         0.0000 Pzz      =         0.0000 
Pxy      =         0.0000 Pxz      =         0.0000 Pyz      =         0.0000 
Lx       =        15.0000 Ly       =        15.0000 Lz       =       255.0510 
---------------- Step       72 ----- CPU =      2.3901 (sec) ----------------
TotEng   =         0.0000 PotEng   =         0.0000 KinEng   =         0.0000 
Temp     =         0.0000 E_vdwl   =         0.0000 Press    =         0.0000 
Pxx      =         0.0000 Pyy      =         0.0000 Pzz      =         0.0000 
Pxy      =         0.0000 Pxz      =         0.0000 Pyz      =         0.0000 
Lx       =        15.0000 Ly       =        15.0000 Lz       =       255.0510 
---------------- Step       73 ----- CPU =      2.4217 (sec) ----------------
TotEng   =         0.0000 PotEng   =         0.0000 KinEng   =         0.0000 
Temp     =         0.0000 E_vdwl   =         0.0000 Press    =         0.0000 
Pxx      =         0.0000 Pyy      =         0.0000 Pzz      =         0.0000 
Pxy      =         0.0000 Pxz      =         0.0000 Pyz      =         0.0000 
Lx       =        15.0000 Ly       =        15.0000 Lz       =       255.0510 
---------------- Step       74 ----- CPU =      2.4455 (sec) ----------------
TotEng   =         0.0000 PotEng   =         0.0000 KinEng   =         0.0000 
Temp     =         0.0000 E_vdwl   =         0.0000 Press    =         0.0000 
Pxx      =         0.0000 Pyy      =         0.0000 Pzz      =         0.0000 
Pxy      =         0.0000 Pxz      =         0.0000 Pyz      =         0.0000 
Lx       =        15.0000 Ly       =        15.0000 Lz       =       255.0510 
---------------- Step       75 ----- CPU =      2.4710 (sec) ----------------
TotEng   =         0.0000 PotEng   =         0.0000 KinEng   =         0.0000 
Temp     =         0.0000 E_vdwl   =         0.0000 Press    =         0.0000 
Pxx      =         0.0000 Pyy      =         0.0000 Pzz      =         0.0000 
Pxy      =         0.0000 Pxz      =         0.0000 Pyz      =         0.0000 
Lx       =        15.0000 Ly       =        15.0000 Lz       =       255.0510 
---------------- Step       76 ----- CPU =      2.5002 (sec) ----------------
TotEng   =         0.0000 PotEng   =         0.0000 KinEng   =         0.0000 
Temp     =         0.0000 E_vdwl   =         0.0000 Press    =         0.0000 
Pxx      =         0.0000 Pyy      =         0.0000 Pzz      =         0.0000 
Pxy      =         0.0000 Pxz      =         0.0000 Pyz      =         0.0000 
Lx       =        15.0000 Ly       =        15.0000 Lz       =       255.0510 
---------------- Step       77 ----- CPU =      2.5287 (sec) ----------------
TotEng   =         0.0000 PotEng   =         0.0000 KinEng   =         0.0000 
Temp     =         0.0000 E_vdwl   =         0.0000 Press    =         0.0000 
Pxx      =         0.0000 Pyy      =         0.0000 Pzz      =         0.0000 
Pxy      =         0.0000 Pxz      =         0.0000 Pyz      =         0.0000 
Lx       =        15.0000 Ly       =        15.0000 Lz       =       255.0510 
---------------- Step       78 ----- CPU =      2.5652 (sec) ----------------
TotEng   =         0.0000 PotEng   =         0.0000 KinEng   =         0.0000 
Temp     =         0.0000 E_vdwl   =         0.0000 Press    =         0.0000 
Pxx      =         0.0000 Pyy      =         0.0000 Pzz      =         0.0000 
Pxy      =         0.0000 Pxz      =         0.0000 Pyz      =         0.0000 
Lx       =        15.0000 Ly       =        15.0000 Lz       =       255.0510 
---------------- Step       79 ----- CPU =      2.6156 (sec) ----------------
TotEng   =         0.0000 PotEng   =         0.0000 KinEng   =         0.0000 
Temp     =         0.0000 E_vdwl   =         0.0000 Press    =         0.0000 
Pxx      =         0.0000 Pyy      =         0.0000 Pzz      =         0.0000 
Pxy      =         0.0000 Pxz      =         0.0000 Pyz      =         0.0000 
Lx       =        15.0000 Ly       =        15.0000 Lz       =       255.0510 
---------------- Step       80 ----- CPU =      2.6491 (sec) ----------------
TotEng   =         0.0000 PotEng   =         0.0000 KinEng   =         0.0000 
Temp     =         0.0000 E_vdwl   =         0.0000 Press    =         0.0000 
Pxx      =         0.0000 Pyy      =         0.0000 Pzz      =         0.0000 
Pxy      =         0.0000 Pxz      =         0.0000 Pyz      =         0.0000 
Lx       =        15.0000 Ly       =        15.0000 Lz       =       255.0510 
---------------- Step       81 ----- CPU =      2.6757 (sec) ----------------
TotEng   =         0.0000 PotEng   =         0.0000 KinEng   =         0.0000 
Temp     =         0.0000 E_vdwl   =         0.0000 Press    =         0.0000 
Pxx      =         0.0000 Pyy      =         0.0000 Pzz      =         0.0000 
Pxy      =         0.0000 Pxz      =         0.0000 Pyz      =         0.0000 
Lx       =        15.0000 Ly       =        15.0000 Lz       =       255.0510 
---------------- Step       82 ----- CPU =      2.7030 (sec) ----------------
TotEng   =         0.0000 PotEng   =         0.0000 KinEng   =         0.0000 
Temp     =         0.0000 E_vdwl   =         0.0000 Press    =         0.0000 
Pxx      =         0.0000 Pyy      =         0.0000 Pzz      =         0.0000 
Pxy      =         0.0000 Pxz      =         0.0000 Pyz      =         0.0000 
Lx       =        15.0000 Ly       =        15.0000 Lz       =       255.0510 
---------------- Step       83 ----- CPU =      2.7336 (sec) ----------------
TotEng   =         0.0000 PotEng   =         0.0000 KinEng   =         0.0000 
Temp     =         0.0000 E_vdwl   =         0.0000 Press    =         0.0000 
Pxx      =         0.0000 Pyy      =         0.0000 Pzz      =         0.0000 
Pxy      =         0.0000 Pxz      =         0.0000 Pyz      =         0.0000 
Lx       =        15.0000 Ly       =        15.0000 Lz       =       255.0510 
---------------- Step       84 ----- CPU =      2.7784 (sec) ----------------
TotEng   =         0.0000 PotEng   =         0.0000 KinEng   =         0.0000 
Temp     =         0.0000 E_vdwl   =         0.0000 Press    =         0.0000 
Pxx      =         0.0000 Pyy      =         0.0000 Pzz      =         0.0000 
Pxy      =         0.0000 Pxz      =         0.0000 Pyz      =         0.0000 
Lx       =        15.0000 Ly       =        15.0000 Lz       =       255.0510 
---------------- Step       85 ----- CPU =      2.8027 (sec) ----------------
TotEng   =         0.0000 PotEng   =         0.0000 KinEng   =         0.0000 
Temp     =         0.0000 E_vdwl   =         0.0000 Press    =         0.0000 
Pxx      =         0.0000 Pyy      =         0.0000 Pzz      =         0.0000 
Pxy      =         0.0000 Pxz      =         0.0000 Pyz      =         0.0000 
Lx       =        15.0000 Ly       =        15.0000 Lz       =       255.0510 
---------------- Step       86 ----- CPU =      2.8397 (sec) ----------------
TotEng   =         0.0000 PotEng   =         0.0000 KinEng   =         0.0000 
Temp     =         0.0000 E_vdwl   =         0.0000 Press    =         0.0000 
Pxx      =         0.0000 Pyy      =         0.0000 Pzz      =         0.0000 
Pxy      =         0.0000 Pxz      =         0.0000 Pyz      =         0.0000 
Lx       =        15.0000 Ly       =        15.0000 Lz       =       255.0510 
---------------- Step       87 ----- CPU =      2.8721 (sec) ----------------
TotEng   =         0.0000 PotEng   =         0.0000 KinEng   =         0.0000 
Temp     =         0.0000 E_vdwl   =         0.0000 Press    =         0.0000 
Pxx      =         0.0000 Pyy      =         0.0000 Pzz      =         0.0000 
Pxy      =         0.0000 Pxz      =         0.0000 Pyz      =         0.0000 
Lx       =        15.0000 Ly       =        15.0000 Lz       =       255.0510 
---------------- Step       88 ----- CPU =      2.9000 (sec) ----------------
TotEng   =         0.0000 PotEng   =         0.0000 KinEng   =         0.0000 
Temp     =         0.0000 E_vdwl   =         0.0000 Press    =         0.0000 
Pxx      =         0.0000 Pyy      =         0.0000 Pzz      =         0.0000 
Pxy      =         0.0000 Pxz      =         0.0000 Pyz      =         0.0000 
Lx       =        15.0000 Ly       =        15.0000 Lz       =       255.0510 
---------------- Step       89 ----- CPU =      2.9310 (sec) ----------------
TotEng   =         0.0000 PotEng   =         0.0000 KinEng   =         0.0000 
Temp     =         0.0000 E_vdwl   =         0.0000 Press    =         0.0000 
Pxx      =         0.0000 Pyy      =         0.0000 Pzz      =         0.0000 
Pxy      =         0.0000 Pxz      =         0.0000 Pyz      =         0.0000 
Lx       =        15.0000 Ly       =        15.0000 Lz       =       255.0510 
---------------- Step       90 ----- CPU =      2.9665 (sec) ----------------
TotEng   =         0.0000 PotEng   =         0.0000 KinEng   =         0.0000 
Temp     =         0.0000 E_vdwl   =         0.0000 Press    =         0.0000 
Pxx      =         0.0000 Pyy      =         0.0000 Pzz      =         0.0000 
Pxy      =         0.0000 Pxz      =         0.0000 Pyz      =         0.0000 
Lx       =        15.0000 Ly       =        15.0000 Lz       =       255.0510 
---------------- Step       91 ----- CPU =      2.9957 (sec) ----------------
TotEng   =         0.0000 PotEng   =         0.0000 KinEng   =         0.0000 
Temp     =         0.0000 E_vdwl   =         0.0000 Press    =         0.0000 
Pxx      =         0.0000 Pyy      =         0.0000 Pzz      =         0.0000 
Pxy      =         0.0000 Pxz      =         0.0000 Pyz      =         0.0000 
Lx       =        15.0000 Ly       =        15.0000 Lz       =       255.0510 
---------------- Step       92 ----- CPU =      3.0308 (sec) ----------------
TotEng   =         0.0000 PotEng   =         0.0000 KinEng   =         0.0000 
Temp     =         0.0000 E_vdwl   =         0.0000 Press    =         0.0000 
Pxx      =         0.0000 Pyy      =         0.0000 Pzz      =         0.0000 
Pxy      =         0.0000 Pxz      =         0.0000 Pyz      =         0.0000 
Lx       =        15.0000 Ly       =        15.0000 Lz       =       255.0510 
---------------- Step       93 ----- CPU =      3.0635 (sec) ----------------
TotEng   =         0.0000 PotEng   =         0.0000 KinEng   =         0.0000 
Temp     =         0.0000 E_vdwl   =         0.0000 Press    =         0.0000 
Pxx      =         0.0000 Pyy      =         0.0000 Pzz      =         0.0000 
Pxy      =         0.0000 Pxz      =         0.0000 Pyz      =         0.0000 
Lx       =        15.0000 Ly       =        15.0000 Lz       =       255.0510 
---------------- Step       94 ----- CPU =      3.0967 (sec) ----------------
TotEng   =         0.0000 PotEng   =         0.0000 KinEng   =         0.0000 
Temp     =         0.0000 E_vdwl   =         0.0000 Press    =         0.0000 
Pxx      =         0.0000 Pyy      =         0.0000 Pzz      =         0.0000 
Pxy      =         0.0000 Pxz      =         0.0000 Pyz      =         0.0000 
Lx       =        15.0000 Ly       =        15.0000 Lz       =       255.0510 
---------------- Step       95 ----- CPU =      3.1289 (sec) ----------------
TotEng   =         0.0000 PotEng   =         0.0000 KinEng   =         0.0000 
Temp     =         0.0000 E_vdwl   =         0.0000 Press    =         0.0000 
Pxx      =         0.0000 Pyy      =         0.0000 Pzz      =         0.0000 
Pxy      =         0.0000 Pxz      =         0.0000 Pyz      =         0.0000 
Lx       =        15.0000 Ly       =        15.0000 Lz       =       255.0510 
---------------- Step       96 ----- CPU =      3.1615 (sec) ----------------
TotEng   =         0.0000 PotEng   =         0.0000 KinEng   =         0.0000 
Temp     =         0.0000 E_vdwl   =         0.0000 Press    =         0.0000 
Pxx      =         0.0000 Pyy      =         0.0000 Pzz      =         0.0000 
Pxy      =         0.0000 Pxz      =         0.0000 Pyz      =         0.0000 
Lx       =        15.0000 Ly       =        15.0000 Lz       =       255.0510 
---------------- Step       97 ----- CPU =      3.1927 (sec) ----------------
TotEng   =         0.0000 PotEng   =         0.0000 KinEng   =         0.0000 
Temp     =         0.0000 E_vdwl   =         0.0000 Press    =         0.0000 
Pxx      =         0.0000 Pyy      =         0.0000 Pzz      =         0.0000 
Pxy      =         0.0000 Pxz      =         0.0000 Pyz      =         0.0000 
Lx       =        15.0000 Ly       =        15.0000 Lz       =       255.0510 
---------------- Step       98 ----- CPU =      3.2287 (sec) ----------------
TotEng   =         0.0000 PotEng   =         0.0000 KinEng   =         0.0000 
Temp     =         0.0000 E_vdwl   =         0.0000 Press    =         0.0000 
Pxx      =         0.0000 Pyy      =         0.0000 Pzz      =         0.0000 
Pxy      =         0.0000 Pxz      =         0.0000 Pyz      =         0.0000 
Lx       =        15.0000 Ly       =        15.0000 Lz       =       255.0510 
---------------- Step       99 ----- CPU =      3.2633 (sec) ----------------
TotEng   =         0.0000 PotEng   =         0.0000 KinEng   =         0.0000 
Temp     =         0.0000 E_vdwl   =         0.0000 Press    =         0.0000 
Pxx      =         0.0000 Pyy      =         0.0000 Pzz      =         0.0000 
Pxy      =         0.0000 Pxz      =         0.0000 Pyz      =         0.0000 
Lx       =        15.0000 Ly       =        15.0000 Lz       =       255.0510 
---------------- Step      100 ----- CPU =      3.2997 (sec) ----------------
TotEng   =         0.0000 PotEng   =         0.0000 KinEng   =         0.0000 
Temp     =         0.0000 E_vdwl   =         0.0000 Press    =         0.0000 
Pxx      =         0.0000 Pyy      =         0.0000 Pzz      =         0.0000 
Pxy      =         0.0000 Pxz      =         0.0000 Pyz      =         0.0000 
Lx       =        15.0000 Ly       =        15.0000 Lz       =       255.0510 
---------------- Step      101 ----- CPU =      3.3373 (sec) ----------------
TotEng   =         0.0000 PotEng   =         0.0000 KinEng   =         0.0000 
Temp     =         0.0000 E_vdwl   =         0.0000 Press    =         0.0000 
Pxx      =         0.0000 Pyy      =         0.0000 Pzz      =         0.0000 
Pxy      =         0.0000 Pxz      =         0.0000 Pyz      =         0.0000 
Lx       =        15.0000 Ly       =        15.0000 Lz       =       255.0510 
---------------- Step      102 ----- CPU =      3.3597 (sec) ----------------
TotEng   =         0.0000 PotEng   =         0.0000 KinEng   =         0.0000 
Temp     =         0.0000 E_vdwl   =         0.0000 Press    =         0.0000 
Pxx      =         0.0000 Pyy      =         0.0000 Pzz      =         0.0000 
Pxy      =         0.0000 Pxz      =         0.0000 Pyz      =         0.0000 
Lx       =        15.0000 Ly       =        15.0000 Lz       =       255.0510 
---------------- Step      103 ----- CPU =      3.3902 (sec) ----------------
TotEng   =         0.0000 PotEng   =         0.0000 KinEng   =         0.0000 
Temp     =         0.0000 E_vdwl   =         0.0000 Press    =         0.0000 
Pxx      =         0.0000 Pyy      =         0.0000 Pzz      =         0.0000 
Pxy      =         0.0000 Pxz      =         0.0000 Pyz      =         0.0000 
Lx       =        15.0000 Ly       =        15.0000 Lz       =       255.0510 
---------------- Step      104 ----- CPU =      3.4117 (sec) ----------------
TotEng   =         0.0000 PotEng   =         0.0000 KinEng   =         0.0000 
Temp     =         0.0000 E_vdwl   =         0.0000 Press    =         0.0000 
Pxx      =         0.0000 Pyy      =         0.0000 Pzz      =         0.0000 
Pxy      =         0.0000 Pxz      =         0.0000 Pyz      =         0.0000 
Lx       =        15.0000 Ly       =        15.0000 Lz       =       255.0510 
---------------- Step      105 ----- CPU =      3.4486 (sec) ----------------
TotEng   =         0.0000 PotEng   =         0.0000 KinEng   =         0.0000 
Temp     =         0.0000 E_vdwl   =         0.0000 Press    =         0.0000 
Pxx      =         0.0000 Pyy      =         0.0000 Pzz      =         0.0000 
Pxy      =         0.0000 Pxz      =         0.0000 Pyz      =         0.0000 
Lx       =        15.0000 Ly       =        15.0000 Lz       =       255.0510 
---------------- Step      106 ----- CPU =      3.4820 (sec) ----------------
TotEng   =         0.0000 PotEng   =         0.0000 KinEng   =         0.0000 
Temp     =         0.0000 E_vdwl   =         0.0000 Press    =         0.0000 
Pxx      =         0.0000 Pyy      =         0.0000 Pzz      =         0.0000 
Pxy      =         0.0000 Pxz      =         0.0000 Pyz      =         0.0000 
Lx       =        15.0000 Ly       =        15.0000 Lz       =       255.0510 
---------------- Step      107 ----- CPU =      3.5148 (sec) ----------------
TotEng   =         0.0000 PotEng   =         0.0000 KinEng   =         0.0000 
Temp     =         0.0000 E_vdwl   =         0.0000 Press    =         0.0000 
Pxx      =         0.0000 Pyy      =         0.0000 Pzz      =         0.0000 
Pxy      =         0.0000 Pxz      =         0.0000 Pyz      =         0.0000 
Lx       =        15.0000 Ly       =        15.0000 Lz       =       255.0510 
---------------- Step      108 ----- CPU =      3.5488 (sec) ----------------
TotEng   =         0.0000 PotEng   =         0.0000 KinEng   =         0.0000 
Temp     =         0.0000 E_vdwl   =         0.0000 Press    =         0.0000 
Pxx      =         0.0000 Pyy      =         0.0000 Pzz      =         0.0000 
Pxy      =         0.0000 Pxz      =         0.0000 Pyz      =         0.0000 
Lx       =        15.0000 Ly       =        15.0000 Lz       =       255.0510 
---------------- Step      109 ----- CPU =      3.5894 (sec) ----------------
TotEng   =         0.0000 PotEng   =         0.0000 KinEng   =         0.0000 
Temp     =         0.0000 E_vdwl   =         0.0000 Press    =         0.0000 
Pxx      =         0.0000 Pyy      =         0.0000 Pzz      =         0.0000 
Pxy      =         0.0000 Pxz      =         0.0000 Pyz      =         0.0000 
Lx       =        15.0000 Ly       =        15.0000 Lz       =       255.0510 
---------------- Step      110 ----- CPU =      3.6236 (sec) ----------------
TotEng   =         0.0000 PotEng   =         0.0000 KinEng   =         0.0000 
Temp     =         0.0000 E_vdwl   =         0.0000 Press    =         0.0000 
Pxx      =         0.0000 Pyy      =         0.0000 Pzz      =         0.0000 
Pxy      =         0.0000 Pxz      =         0.0000 Pyz      =         0.0000 
Lx       =        15.0000 Ly       =        15.0000 Lz       =       255.0510 
---------------- Step      111 ----- CPU =      3.6458 (sec) ----------------
TotEng   =         0.0000 PotEng   =         0.0000 KinEng   =         0.0000 
Temp     =         0.0000 E_vdwl   =         0.0000 Press    =         0.0000 
Pxx      =         0.0000 Pyy      =         0.0000 Pzz      =         0.0000 
Pxy      =         0.0000 Pxz      =         0.0000 Pyz      =         0.0000 
Lx       =        15.0000 Ly       =        15.0000 Lz       =       255.0510 
---------------- Step      112 ----- CPU =      3.6776 (sec) ----------------
TotEng   =         0.0000 PotEng   =         0.0000 KinEng   =         0.0000 
Temp     =         0.0000 E_vdwl   =         0.0000 Press    =         0.0000 
Pxx      =         0.0000 Pyy      =         0.0000 Pzz      =         0.0000 
Pxy      =         0.0000 Pxz      =         0.0000 Pyz      =         0.0000 
Lx       =        15.0000 Ly       =        15.0000 Lz       =       255.0510 
---------------- Step      113 ----- CPU =      3.7104 (sec) ----------------
TotEng   =         0.0000 PotEng   =         0.0000 KinEng   =         0.0000 
Temp     =         0.0000 E_vdwl   =         0.0000 Press    =         0.0000 
Pxx      =         0.0000 Pyy      =         0.0000 Pzz      =         0.0000 
Pxy      =         0.0000 Pxz      =         0.0000 Pyz      =         0.0000 
Lx       =        15.0000 Ly       =        15.0000 Lz       =       255.0510 
---------------- Step      114 ----- CPU =      3.7443 (sec) ----------------
TotEng   =         0.0000 PotEng   =         0.0000 KinEng   =         0.0000 
Temp     =         0.0000 E_vdwl   =         0.0000 Press    =         0.0000 
Pxx      =         0.0000 Pyy      =         0.0000 Pzz      =         0.0000 
Pxy      =         0.0000 Pxz      =         0.0000 Pyz      =         0.0000 
Lx       =        15.0000 Ly       =        15.0000 Lz       =       255.0510 
---------------- Step      115 ----- CPU =      3.7714 (sec) ----------------
TotEng   =         0.0000 PotEng   =         0.0000 KinEng   =         0.0000 
Temp     =         0.0000 E_vdwl   =         0.0000 Press    =         0.0000 
Pxx      =         0.0000 Pyy      =         0.0000 Pzz      =         0.0000 
Pxy      =         0.0000 Pxz      =         0.0000 Pyz      =         0.0000 
Lx       =        15.0000 Ly       =        15.0000 Lz       =       255.0510 
---------------- Step      116 ----- CPU =      3.8054 (sec) ----------------
TotEng   =         0.0000 PotEng   =         0.0000 KinEng   =         0.0000 
Temp     =         0.0000 E_vdwl   =         0.0000 Press    =         0.0000 
Pxx      =         0.0000 Pyy      =         0.0000 Pzz      =         0.0000 
Pxy      =         0.0000 Pxz      =         0.0000 Pyz      =         0.0000 
Lx       =        15.0000 Ly       =        15.0000 Lz       =       255.0510 
---------------- Step      117 ----- CPU =      3.8417 (sec) ----------------
TotEng   =         0.0000 PotEng   =         0.0000 KinEng   =         0.0000 
Temp     =         0.0000 E_vdwl   =         0.0000 Press    =         0.0000 
Pxx      =         0.0000 Pyy      =         0.0000 Pzz      =         0.0000 
Pxy      =         0.0000 Pxz      =         0.0000 Pyz      =         0.0000 
Lx       =        15.0000 Ly       =        15.0000 Lz       =       255.0510 
---------------- Step      118 ----- CPU =      3.8728 (sec) ----------------
TotEng   =         0.0000 PotEng   =         0.0000 KinEng   =         0.0000 
Temp     =         0.0000 E_vdwl   =         0.0000 Press    =         0.0000 
Pxx      =         0.0000 Pyy      =         0.0000 Pzz      =         0.0000 
Pxy      =         0.0000 Pxz      =         0.0000 Pyz      =         0.0000 
Lx       =        15.0000 Ly       =        15.0000 Lz       =       255.0510 
---------------- Step      119 ----- CPU =      3.8977 (sec) ----------------
TotEng   =         0.0000 PotEng   =         0.0000 KinEng   =         0.0000 
Temp     =         0.0000 E_vdwl   =         0.0000 Press    =         0.0000 
Pxx      =         0.0000 Pyy      =         0.0000 Pzz      =         0.0000 
Pxy      =         0.0000 Pxz      =         0.0000 Pyz      =         0.0000 
Lx       =        15.0000 Ly       =        15.0000 Lz       =       255.0510 
---------------- Step      120 ----- CPU =      3.9288 (sec) ----------------
TotEng   =         0.0000 PotEng   =         0.0000 KinEng   =         0.0000 
Temp     =         0.0000 E_vdwl   =         0.0000 Press    =         0.0000 
Pxx      =         0.0000 Pyy      =         0.0000 Pzz      =         0.0000 
Pxy      =         0.0000 Pxz      =         0.0000 Pyz      =         0.0000 
Lx       =        15.0000 Ly       =        15.0000 Lz       =       255.0510 
---------------- Step      121 ----- CPU =      3.9577 (sec) ----------------
TotEng   =         0.0000 PotEng   =         0.0000 KinEng   =         0.0000 
Temp     =         0.0000 E_vdwl   =         0.0000 Press    =         0.0000 
Pxx      =         0.0000 Pyy      =         0.0000 Pzz      =         0.0000 
Pxy      =         0.0000 Pxz      =         0.0000 Pyz      =         0.0000 
Lx       =        15.0000 Ly       =        15.0000 Lz       =       255.0510 
---------------- Step      122 ----- CPU =      3.9870 (sec) ----------------
TotEng   =         0.0000 PotEng   =         0.0000 KinEng   =         0.0000 
Temp     =         0.0000 E_vdwl   =         0.0000 Press    =         0.0000 
Pxx      =         0.0000 Pyy      =         0.0000 Pzz      =         0.0000 
Pxy      =         0.0000 Pxz      =         0.0000 Pyz      =         0.0000 
Lx       =        15.0000 Ly       =        15.0000 Lz       =       255.0510 
---------------- Step      123 ----- CPU =      4.0130 (sec) ----------------
TotEng   =         0.0000 PotEng   =         0.0000 KinEng   =         0.0000 
Temp     =         0.0000 E_vdwl   =         0.0000 Press    =         0.0000 
Pxx      =         0.0000 Pyy      =         0.0000 Pzz      =         0.0000 
Pxy      =         0.0000 Pxz      =         0.0000 Pyz      =         0.0000 
Lx       =        15.0000 Ly       =        15.0000 Lz       =       255.0510 
---------------- Step      124 ----- CPU =      4.0493 (sec) ----------------
TotEng   =         0.0000 PotEng   =         0.0000 KinEng   =         0.0000 
Temp     =         0.0000 E_vdwl   =         0.0000 Press    =         0.0000 
Pxx      =         0.0000 Pyy      =         0.0000 Pzz      =         0.0000 
Pxy      =         0.0000 Pxz      =         0.0000 Pyz      =         0.0000 
Lx       =        15.0000 Ly       =        15.0000 Lz       =       255.0510 
---------------- Step      125 ----- CPU =      4.0928 (sec) ----------------
TotEng   =         0.0000 PotEng   =         0.0000 KinEng   =         0.0000 
Temp     =         0.0000 E_vdwl   =         0.0000 Press    =         0.0000 
Pxx      =         0.0000 Pyy      =         0.0000 Pzz      =         0.0000 
Pxy      =         0.0000 Pxz      =         0.0000 Pyz      =         0.0000 
Lx       =        15.0000 Ly       =        15.0000 Lz       =       255.0510 
---------------- Step      126 ----- CPU =      4.1254 (sec) ----------------
TotEng   =         0.0000 PotEng   =         0.0000 KinEng   =         0.0000 
Temp     =         0.0000 E_vdwl   =         0.0000 Press    =         0.0000 
Pxx      =         0.0000 Pyy      =         0.0000 Pzz      =         0.0000 
Pxy      =         0.0000 Pxz      =         0.0000 Pyz      =         0.0000 
Lx       =        15.0000 Ly       =        15.0000 Lz       =       255.0510 
---------------- Step      127 ----- CPU =      4.1565 (sec) ----------------
TotEng   =         0.0000 PotEng   =         0.0000 KinEng   =         0.0000 
Temp     =         0.0000 E_vdwl   =         0.0000 Press    =         0.0000 
Pxx      =         0.0000 Pyy      =         0.0000 Pzz      =         0.0000 
Pxy      =         0.0000 Pxz      =         0.0000 Pyz      =         0.0000 
Lx       =        15.0000 Ly       =        15.0000 Lz       =       255.0510 
---------------- Step      128 ----- CPU =      4.1856 (sec) ----------------
TotEng   =         0.0000 PotEng   =         0.0000 KinEng   =         0.0000 
Temp     =         0.0000 E_vdwl   =         0.0000 Press    =         0.0000 
Pxx      =         0.0000 Pyy      =         0.0000 Pzz      =         0.0000 
Pxy      =         0.0000 Pxz      =         0.0000 Pyz      =         0.0000 
Lx       =        15.0000 Ly       =        15.0000 Lz       =       255.0510 
---------------- Step      129 ----- CPU =      4.2198 (sec) ----------------
TotEng   =         0.0000 PotEng   =         0.0000 KinEng   =         0.0000 
Temp     =         0.0000 E_vdwl   =         0.0000 Press    =         0.0000 
Pxx      =         0.0000 Pyy      =         0.0000 Pzz      =         0.0000 
Pxy      =         0.0000 Pxz      =         0.0000 Pyz      =         0.0000 
Lx       =        15.0000 Ly       =        15.0000 Lz       =       255.0510 
---------------- Step      130 ----- CPU =      4.2487 (sec) ----------------
TotEng   =         0.0000 PotEng   =         0.0000 KinEng   =         0.0000 
Temp     =         0.0000 E_vdwl   =         0.0000 Press    =         0.0000 
Pxx      =         0.0000 Pyy      =         0.0000 Pzz      =         0.0000 
Pxy      =         0.0000 Pxz      =         0.0000 Pyz      =         0.0000 
Lx       =        15.0000 Ly       =        15.0000 Lz       =       255.0510 
---------------- Step      131 ----- CPU =      4.2890 (sec) ----------------
TotEng   =         0.0000 PotEng   =         0.0000 KinEng   =         0.0000 
Temp     =         0.0000 E_vdwl   =         0.0000 Press    =         0.0000 
Pxx      =         0.0000 Pyy      =         0.0000 Pzz      =         0.0000 
Pxy      =         0.0000 Pxz      =         0.0000 Pyz      =         0.0000 
Lx       =        15.0000 Ly       =        15.0000 Lz       =       255.0510 
---------------- Step      132 ----- CPU =      4.3194 (sec) ----------------
TotEng   =         0.0000 PotEng   =         0.0000 KinEng   =         0.0000 
Temp     =         0.0000 E_vdwl   =         0.0000 Press    =         0.0000 
Pxx      =         0.0000 Pyy      =         0.0000 Pzz      =         0.0000 
Pxy      =         0.0000 Pxz      =         0.0000 Pyz      =         0.0000 
Lx       =        15.0000 Ly       =        15.0000 Lz       =       255.0510 
---------------- Step      133 ----- CPU =      4.3747 (sec) ----------------
TotEng   =         0.0000 PotEng   =         0.0000 KinEng   =         0.0000 
Temp     =         0.0000 E_vdwl   =         0.0000 Press    =         0.0000 
Pxx      =         0.0000 Pyy      =         0.0000 Pzz      =         0.0000 
Pxy      =         0.0000 Pxz      =         0.0000 Pyz      =         0.0000 
Lx       =        15.0000 Ly       =        15.0000 Lz       =       255.0510 
---------------- Step      134 ----- CPU =      4.3995 (sec) ----------------
TotEng   =         0.0000 PotEng   =         0.0000 KinEng   =         0.0000 
Temp     =         0.0000 E_vdwl   =         0.0000 Press    =         0.0000 
Pxx      =         0.0000 Pyy      =         0.0000 Pzz      =         0.0000 
Pxy      =         0.0000 Pxz      =         0.0000 Pyz      =         0.0000 
Lx       =        15.0000 Ly       =        15.0000 Lz       =       255.0510 
---------------- Step      135 ----- CPU =      4.4348 (sec) ----------------
TotEng   =         0.0000 PotEng   =         0.0000 KinEng   =         0.0000 
Temp     =         0.0000 E_vdwl   =         0.0000 Press    =         0.0000 
Pxx      =         0.0000 Pyy      =         0.0000 Pzz      =         0.0000 
Pxy      =         0.0000 Pxz      =         0.0000 Pyz      =         0.0000 
Lx       =        15.0000 Ly       =        15.0000 Lz       =       255.0510 
---------------- Step      136 ----- CPU =      4.4617 (sec) ----------------
TotEng   =         0.0000 PotEng   =         0.0000 KinEng   =         0.0000 
Temp     =         0.0000 E_vdwl   =         0.0000 Press    =         0.0000 
Pxx      =         0.0000 Pyy      =         0.0000 Pzz      =         0.0000 
Pxy      =         0.0000 Pxz      =         0.0000 Pyz      =         0.0000 
Lx       =        15.0000 Ly       =        15.0000 Lz       =       255.0510 
---------------- Step      137 ----- CPU =      4.4920 (sec) ----------------
TotEng   =         0.0000 PotEng   =         0.0000 KinEng   =         0.0000 
Temp     =         0.0000 E_vdwl   =         0.0000 Press    =         0.0000 
Pxx      =         0.0000 Pyy      =         0.0000 Pzz      =         0.0000 
Pxy      =         0.0000 Pxz      =         0.0000 Pyz      =         0.0000 
Lx       =        15.0000 Ly       =        15.0000 Lz       =       255.0510 
---------------- Step      138 ----- CPU =      4.5196 (sec) ----------------
TotEng   =         0.0000 PotEng   =         0.0000 KinEng   =         0.0000 
Temp     =         0.0000 E_vdwl   =         0.0000 Press    =         0.0000 
Pxx      =         0.0000 Pyy      =         0.0000 Pzz      =         0.0000 
Pxy      =         0.0000 Pxz      =         0.0000 Pyz      =         0.0000 
Lx       =        15.0000 Ly       =        15.0000 Lz       =       255.0510 
---------------- Step      139 ----- CPU =      4.5476 (sec) ----------------
TotEng   =         0.0000 PotEng   =         0.0000 KinEng   =         0.0000 
Temp     =         0.0000 E_vdwl   =         0.0000 Press    =         0.0000 
Pxx      =         0.0000 Pyy      =         0.0000 Pzz      =         0.0000 
Pxy      =         0.0000 Pxz      =         0.0000 Pyz      =         0.0000 
Lx       =        15.0000 Ly       =        15.0000 Lz       =       255.0510 
---------------- Step      140 ----- CPU =      4.5811 (sec) ----------------
TotEng   =         0.0000 PotEng   =         0.0000 KinEng   =         0.0000 
Temp     =         0.0000 E_vdwl   =         0.0000 Press    =         0.0000 
Pxx      =         0.0000 Pyy      =         0.0000 Pzz      =         0.0000 
Pxy      =         0.0000 Pxz      =         0.0000 Pyz      =         0.0000 
Lx       =        15.0000 Ly       =        15.0000 Lz       =       255.0510 
---------------- Step      141 ----- CPU =      4.6178 (sec) ----------------
TotEng   =         0.0000 PotEng   =         0.0000 KinEng   =         0.0000 
Temp     =         0.0000 E_vdwl   =         0.0000 Press    =         0.0000 
Pxx      =         0.0000 Pyy      =         0.0000 Pzz      =         0.0000 
Pxy      =         0.0000 Pxz      =         0.0000 Pyz      =         0.0000 
Lx       =        15.0000 Ly       =        15.0000 Lz       =       255.0510 
---------------- Step      142 ----- CPU =      4.6461 (sec) ----------------
TotEng   =         0.0000 PotEng   =         0.0000 KinEng   =         0.0000 
Temp     =         0.0000 E_vdwl   =         0.0000 Press    =         0.0000 
Pxx      =         0.0000 Pyy      =         0.0000 Pzz      =         0.0000 
Pxy      =         0.0000 Pxz      =         0.0000 Pyz      =         0.0000 
Lx       =        15.0000 Ly       =        15.0000 Lz       =       255.0510 
---------------- Step      143 ----- CPU =      4.6759 (sec) ----------------
TotEng   =         0.0000 PotEng   =         0.0000 KinEng   =         0.0000 
Temp     =         0.0000 E_vdwl   =         0.0000 Press    =         0.0000 
Pxx      =         0.0000 Pyy      =         0.0000 Pzz      =         0.0000 
Pxy      =         0.0000 Pxz      =         0.0000 Pyz      =         0.0000 
Lx       =        15.0000 Ly       =        15.0000 Lz       =       255.0510 
---------------- Step      144 ----- CPU =      4.7035 (sec) ----------------
TotEng   =         0.0000 PotEng   =         0.0000 KinEng   =         0.0000 
Temp     =         0.0000 E_vdwl   =         0.0000 Press    =         0.0000 
Pxx      =         0.0000 Pyy      =         0.0000 Pzz      =         0.0000 
Pxy      =         0.0000 Pxz      =         0.0000 Pyz      =         0.0000 
Lx       =        15.0000 Ly       =        15.0000 Lz       =       255.0510 
---------------- Step      145 ----- CPU =      4.7309 (sec) ----------------
TotEng   =         0.0000 PotEng   =         0.0000 KinEng   =         0.0000 
Temp     =         0.0000 E_vdwl   =         0.0000 Press    =         0.0000 
Pxx      =         0.0000 Pyy      =         0.0000 Pzz      =         0.0000 
Pxy      =         0.0000 Pxz      =         0.0000 Pyz      =         0.0000 
Lx       =        15.0000 Ly       =        15.0000 Lz       =       255.0510 
---------------- Step      146 ----- CPU =      4.7649 (sec) ----------------
TotEng   =         0.0000 PotEng   =         0.0000 KinEng   =         0.0000 
Temp     =         0.0000 E_vdwl   =         0.0000 Press    =         0.0000 
Pxx      =         0.0000 Pyy      =         0.0000 Pzz      =         0.0000 
Pxy      =         0.0000 Pxz      =         0.0000 Pyz      =         0.0000 
Lx       =        15.0000 Ly       =        15.0000 Lz       =       255.0510 
---------------- Step      147 ----- CPU =      4.8034 (sec) ----------------
TotEng   =         0.0000 PotEng   =         0.0000 KinEng   =         0.0000 
Temp     =         0.0000 E_vdwl   =         0.0000 Press    =         0.0000 
Pxx      =         0.0000 Pyy      =         0.0000 Pzz      =         0.0000 
Pxy      =         0.0000 Pxz      =         0.0000 Pyz      =         0.0000 
Lx       =        15.0000 Ly       =        15.0000 Lz       =       255.0510 
---------------- Step      148 ----- CPU =      4.8321 (sec) ----------------
TotEng   =         0.0000 PotEng   =         0.0000 KinEng   =         0.0000 
Temp     =         0.0000 E_vdwl   =         0.0000 Press    =         0.0000 
Pxx      =         0.0000 Pyy      =         0.0000 Pzz      =         0.0000 
Pxy      =         0.0000 Pxz      =         0.0000 Pyz      =         0.0000 
Lx       =        15.0000 Ly       =        15.0000 Lz       =       255.0510 
---------------- Step      149 ----- CPU =      4.8625 (sec) ----------------
TotEng   =         0.0000 PotEng   =         0.0000 KinEng   =         0.0000 
Temp     =         0.0000 E_vdwl   =         0.0000 Press    =         0.0000 
Pxx      =         0.0000 Pyy      =         0.0000 Pzz      =         0.0000 
Pxy      =         0.0000 Pxz      =         0.0000 Pyz      =         0.0000 
Lx       =        15.0000 Ly       =        15.0000 Lz       =       255.0510 
---------------- Step      150 ----- CPU =      4.8883 (sec) ----------------
TotEng   =         0.0000 PotEng   =         0.0000 KinEng   =         0.0000 
Temp     =         0.0000 E_vdwl   =         0.0000 Press    =         0.0000 
Pxx      =         0.0000 Pyy      =         0.0000 Pzz      =         0.0000 
Pxy      =         0.0000 Pxz      =         0.0000 Pyz      =         0.0000 
Lx       =        15.0000 Ly       =        15.0000 Lz       =       255.0510 
---------------- Step      151 ----- CPU =      4.9289 (sec) ----------------
TotEng   =         0.0000 PotEng   =         0.0000 KinEng   =         0.0000 
Temp     =         0.0000 E_vdwl   =         0.0000 Press    =         0.0000 
Pxx      =         0.0000 Pyy      =         0.0000 Pzz      =         0.0000 
Pxy      =         0.0000 Pxz      =         0.0000 Pyz      =         0.0000 
Lx       =        15.0000 Ly       =        15.0000 Lz       =       255.0510 
---------------- Step      152 ----- CPU =      4.9621 (sec) ----------------
TotEng   =         0.0000 PotEng   =         0.0000 KinEng   =         0.0000 
Temp     =         0.0000 E_vdwl   =         0.0000 Press    =         0.0000 
Pxx      =         0.0000 Pyy      =         0.0000 Pzz      =         0.0000 
Pxy      =         0.0000 Pxz      =         0.0000 Pyz      =         0.0000 
Lx       =        15.0000 Ly       =        15.0000 Lz       =       255.0510 
---------------- Step      153 ----- CPU =      4.9988 (sec) ----------------
TotEng   =         0.0000 PotEng   =         0.0000 KinEng   =         0.0000 
Temp     =         0.0000 E_vdwl   =         0.0000 Press    =         0.0000 
Pxx      =         0.0000 Pyy      =         0.0000 Pzz      =         0.0000 
Pxy      =         0.0000 Pxz      =         0.0000 Pyz      =         0.0000 
Lx       =        15.0000 Ly       =        15.0000 Lz       =       255.0510 
---------------- Step      154 ----- CPU =      5.0243 (sec) ----------------
TotEng   =         0.0000 PotEng   =         0.0000 KinEng   =         0.0000 
Temp     =         0.0000 E_vdwl   =         0.0000 Press    =         0.0000 
Pxx      =         0.0000 Pyy      =         0.0000 Pzz      =         0.0000 
Pxy      =         0.0000 Pxz      =         0.0000 Pyz      =         0.0000 
Lx       =        15.0000 Ly       =        15.0000 Lz       =       255.0510 
---------------- Step      155 ----- CPU =      5.0545 (sec) ----------------
TotEng   =         0.0000 PotEng   =         0.0000 KinEng   =         0.0000 
Temp     =         0.0000 E_vdwl   =         0.0000 Press    =         0.0000 
Pxx      =         0.0000 Pyy      =         0.0000 Pzz      =         0.0000 
Pxy      =         0.0000 Pxz      =         0.0000 Pyz      =         0.0000 
Lx       =        15.0000 Ly       =        15.0000 Lz       =       255.0510 
---------------- Step      156 ----- CPU =      5.0864 (sec) ----------------
TotEng   =         0.0000 PotEng   =         0.0000 KinEng   =         0.0000 
Temp     =         0.0000 E_vdwl   =         0.0000 Press    =         0.0000 
Pxx      =         0.0000 Pyy      =         0.0000 Pzz      =         0.0000 
Pxy      =         0.0000 Pxz      =         0.0000 Pyz      =         0.0000 
Lx       =        15.0000 Ly       =        15.0000 Lz       =       255.0510 
---------------- Step      157 ----- CPU =      5.1204 (sec) ----------------
TotEng   =         0.0000 PotEng   =         0.0000 KinEng   =         0.0000 
Temp     =         0.0000 E_vdwl   =         0.0000 Press    =         0.0000 
Pxx      =         0.0000 Pyy      =         0.0000 Pzz      =         0.0000 
Pxy      =         0.0000 Pxz      =         0.0000 Pyz      =         0.0000 
Lx       =        15.0000 Ly       =        15.0000 Lz       =       255.0510 
---------------- Step      158 ----- CPU =      5.1545 (sec) ----------------
TotEng   =         0.0000 PotEng   =         0.0000 KinEng   =         0.0000 
Temp     =         0.0000 E_vdwl   =         0.0000 Press    =         0.0000 
Pxx      =         0.0000 Pyy      =         0.0000 Pzz      =         0.0000 
Pxy      =         0.0000 Pxz      =         0.0000 Pyz      =         0.0000 
Lx       =        15.0000 Ly       =        15.0000 Lz       =       255.0510 
---------------- Step      159 ----- CPU =      5.1801 (sec) ----------------
TotEng   =         0.0000 PotEng   =         0.0000 KinEng   =         0.0000 
Temp     =         0.0000 E_vdwl   =         0.0000 Press    =         0.0000 
Pxx      =         0.0000 Pyy      =         0.0000 Pzz      =         0.0000 
Pxy      =         0.0000 Pxz      =         0.0000 Pyz      =         0.0000 
Lx       =        15.0000 Ly       =        15.0000 Lz       =       255.0510 
---------------- Step      160 ----- CPU =      5.2067 (sec) ----------------
TotEng   =         0.0000 PotEng   =         0.0000 KinEng   =         0.0000 
Temp     =         0.0000 E_vdwl   =         0.0000 Press    =         0.0000 
Pxx      =         0.0000 Pyy      =         0.0000 Pzz      =         0.0000 
Pxy      =         0.0000 Pxz      =         0.0000 Pyz      =         0.0000 
Lx       =        15.0000 Ly       =        15.0000 Lz       =       255.0510 
---------------- Step      161 ----- CPU =      5.2380 (sec) ----------------
TotEng   =         0.0000 PotEng   =         0.0000 KinEng   =         0.0000 
Temp     =         0.0000 E_vdwl   =         0.0000 Press    =         0.0000 
Pxx      =         0.0000 Pyy      =         0.0000 Pzz      =         0.0000 
Pxy      =         0.0000 Pxz      =         0.0000 Pyz      =         0.0000 
Lx       =        15.0000 Ly       =        15.0000 Lz       =       255.0510 
---------------- Step      162 ----- CPU =      5.2654 (sec) ----------------
TotEng   =         0.0000 PotEng   =         0.0000 KinEng   =         0.0000 
Temp     =         0.0000 E_vdwl   =         0.0000 Press    =         0.0000 
Pxx      =         0.0000 Pyy      =         0.0000 Pzz      =         0.0000 
Pxy      =         0.0000 Pxz      =         0.0000 Pyz      =         0.0000 
Lx       =        15.0000 Ly       =        15.0000 Lz       =       255.0510 
---------------- Step      163 ----- CPU =      5.2968 (sec) ----------------
TotEng   =         0.0000 PotEng   =         0.0000 KinEng   =         0.0000 
Temp     =         0.0000 E_vdwl   =         0.0000 Press    =         0.0000 
Pxx      =         0.0000 Pyy      =         0.0000 Pzz      =         0.0000 
Pxy      =         0.0000 Pxz      =         0.0000 Pyz      =         0.0000 
Lx       =        15.0000 Ly       =        15.0000 Lz       =       255.0510 
---------------- Step      164 ----- CPU =      5.3240 (sec) ----------------
TotEng   =         0.0000 PotEng   =         0.0000 KinEng   =         0.0000 
Temp     =         0.0000 E_vdwl   =         0.0000 Press    =         0.0000 
Pxx      =         0.0000 Pyy      =         0.0000 Pzz      =         0.0000 
Pxy      =         0.0000 Pxz      =         0.0000 Pyz      =         0.0000 
Lx       =        15.0000 Ly       =        15.0000 Lz       =       255.0510 
---------------- Step      165 ----- CPU =      5.3647 (sec) ----------------
TotEng   =         0.0000 PotEng   =         0.0000 KinEng   =         0.0000 
Temp     =         0.0000 E_vdwl   =         0.0000 Press    =         0.0000 
Pxx      =         0.0000 Pyy      =         0.0000 Pzz      =         0.0000 
Pxy      =         0.0000 Pxz      =         0.0000 Pyz      =         0.0000 
Lx       =        15.0000 Ly       =        15.0000 Lz       =       255.0510 
---------------- Step      166 ----- CPU =      5.3991 (sec) ----------------
TotEng   =         0.0000 PotEng   =         0.0000 KinEng   =         0.0000 
Temp     =         0.0000 E_vdwl   =         0.0000 Press    =         0.0000 
Pxx      =         0.0000 Pyy      =         0.0000 Pzz      =         0.0000 
Pxy      =         0.0000 Pxz      =         0.0000 Pyz      =         0.0000 
Lx       =        15.0000 Ly       =        15.0000 Lz       =       255.0510 
---------------- Step      167 ----- CPU =      5.4273 (sec) ----------------
TotEng   =         0.0000 PotEng   =         0.0000 KinEng   =         0.0000 
Temp     =         0.0000 E_vdwl   =         0.0000 Press    =         0.0000 
Pxx      =         0.0000 Pyy      =         0.0000 Pzz      =         0.0000 
Pxy      =         0.0000 Pxz      =         0.0000 Pyz      =         0.0000 
Lx       =        15.0000 Ly       =        15.0000 Lz       =       255.0510 
---------------- Step      168 ----- CPU =      5.4473 (sec) ----------------
TotEng   =         0.0000 PotEng   =         0.0000 KinEng   =         0.0000 
Temp     =         0.0000 E_vdwl   =         0.0000 Press    =         0.0000 
Pxx      =         0.0000 Pyy      =         0.0000 Pzz      =         0.0000 
Pxy      =         0.0000 Pxz      =         0.0000 Pyz      =         0.0000 
Lx       =        15.0000 Ly       =        15.0000 Lz       =       255.0510 
---------------- Step      169 ----- CPU =      5.4928 (sec) ----------------
TotEng   =         0.0000 PotEng   =         0.0000 KinEng   =         0.0000 
Temp     =         0.0000 E_vdwl   =         0.0000 Press    =         0.0000 
Pxx      =         0.0000 Pyy      =         0.0000 Pzz      =         0.0000 
Pxy      =         0.0000 Pxz      =         0.0000 Pyz      =         0.0000 
Lx       =        15.0000 Ly       =        15.0000 Lz       =       255.0510 
---------------- Step      170 ----- CPU =      5.5282 (sec) ----------------
TotEng   =         0.0000 PotEng   =         0.0000 KinEng   =         0.0000 
Temp     =         0.0000 E_vdwl   =         0.0000 Press    =         0.0000 
Pxx      =         0.0000 Pyy      =         0.0000 Pzz      =         0.0000 
Pxy      =         0.0000 Pxz      =         0.0000 Pyz      =         0.0000 
Lx       =        15.0000 Ly       =        15.0000 Lz       =       255.0510 
---------------- Step      171 ----- CPU =      5.5623 (sec) ----------------
TotEng   =         0.0000 PotEng   =         0.0000 KinEng   =         0.0000 
Temp     =         0.0000 E_vdwl   =         0.0000 Press    =         0.0000 
Pxx      =         0.0000 Pyy      =         0.0000 Pzz      =         0.0000 
Pxy      =         0.0000 Pxz      =         0.0000 Pyz      =         0.0000 
Lx       =        15.0000 Ly       =        15.0000 Lz       =       255.0510 
---------------- Step      172 ----- CPU =      5.5966 (sec) ----------------
TotEng   =         0.0000 PotEng   =         0.0000 KinEng   =         0.0000 
Temp     =         0.0000 E_vdwl   =         0.0000 Press    =         0.0000 
Pxx      =         0.0000 Pyy      =         0.0000 Pzz      =         0.0000 
Pxy      =         0.0000 Pxz      =         0.0000 Pyz      =         0.0000 
Lx       =        15.0000 Ly       =        15.0000 Lz       =       255.0510 
---------------- Step      173 ----- CPU =      5.6277 (sec) ----------------
TotEng   =         0.0000 PotEng   =         0.0000 KinEng   =         0.0000 
Temp     =         0.0000 E_vdwl   =         0.0000 Press    =         0.0000 
Pxx      =         0.0000 Pyy      =         0.0000 Pzz      =         0.0000 
Pxy      =         0.0000 Pxz      =         0.0000 Pyz      =         0.0000 
Lx       =        15.0000 Ly       =        15.0000 Lz       =       255.0510 
---------------- Step      174 ----- CPU =      5.6645 (sec) ----------------
TotEng   =         0.0000 PotEng   =         0.0000 KinEng   =         0.0000 
Temp     =         0.0000 E_vdwl   =         0.0000 Press    =         0.0000 
Pxx      =         0.0000 Pyy      =         0.0000 Pzz      =         0.0000 
Pxy      =         0.0000 Pxz      =         0.0000 Pyz      =         0.0000 
Lx       =        15.0000 Ly       =        15.0000 Lz       =       255.0510 
---------------- Step      175 ----- CPU =      5.7031 (sec) ----------------
TotEng   =         0.0000 PotEng   =         0.0000 KinEng   =         0.0000 
Temp     =         0.0000 E_vdwl   =         0.0000 Press    =         0.0000 
Pxx      =         0.0000 Pyy      =         0.0000 Pzz      =         0.0000 
Pxy      =         0.0000 Pxz      =         0.0000 Pyz      =         0.0000 
Lx       =        15.0000 Ly       =        15.0000 Lz       =       255.0510 
---------------- Step      176 ----- CPU =      5.7374 (sec) ----------------
TotEng   =         0.0000 PotEng   =         0.0000 KinEng   =         0.0000 
Temp     =         0.0000 E_vdwl   =         0.0000 Press    =         0.0000 
Pxx      =         0.0000 Pyy      =         0.0000 Pzz      =         0.0000 
Pxy      =         0.0000 Pxz      =         0.0000 Pyz      =         0.0000 
Lx       =        15.0000 Ly       =        15.0000 Lz       =       255.0510 
---------------- Step      177 ----- CPU =      5.7706 (sec) ----------------
TotEng   =         0.0000 PotEng   =         0.0000 KinEng   =         0.0000 
Temp     =         0.0000 E_vdwl   =         0.0000 Press    =         0.0000 
Pxx      =         0.0000 Pyy      =         0.0000 Pzz      =         0.0000 
Pxy      =         0.0000 Pxz      =         0.0000 Pyz      =         0.0000 
Lx       =        15.0000 Ly       =        15.0000 Lz       =       255.0510 
---------------- Step      178 ----- CPU =      5.8037 (sec) ----------------
TotEng   =         0.0000 PotEng   =         0.0000 KinEng   =         0.0000 
Temp     =         0.0000 E_vdwl   =         0.0000 Press    =         0.0000 
Pxx      =         0.0000 Pyy      =         0.0000 Pzz      =         0.0000 
Pxy      =         0.0000 Pxz      =         0.0000 Pyz      =         0.0000 
Lx       =        15.0000 Ly       =        15.0000 Lz       =       255.0510 
---------------- Step      179 ----- CPU =      5.8460 (sec) ----------------
TotEng   =         0.0000 PotEng   =         0.0000 KinEng   =         0.0000 
Temp     =         0.0000 E_vdwl   =         0.0000 Press    =         0.0000 
Pxx      =         0.0000 Pyy      =         0.0000 Pzz      =         0.0000 
Pxy      =         0.0000 Pxz      =         0.0000 Pyz      =         0.0000 
Lx       =        15.0000 Ly       =        15.0000 Lz       =       255.0510 
---------------- Step      180 ----- CPU =      5.8786 (sec) ----------------
TotEng   =         0.0000 PotEng   =         0.0000 KinEng   =         0.0000 
Temp     =         0.0000 E_vdwl   =         0.0000 Press    =         0.0000 
Pxx      =         0.0000 Pyy      =         0.0000 Pzz      =         0.0000 
Pxy      =         0.0000 Pxz      =         0.0000 Pyz      =         0.0000 
Lx       =        15.0000 Ly       =        15.0000 Lz       =       255.0510 
---------------- Step      181 ----- CPU =      5.9175 (sec) ----------------
TotEng   =         0.0000 PotEng   =         0.0000 KinEng   =         0.0000 
Temp     =         0.0000 E_vdwl   =         0.0000 Press    =         0.0000 
Pxx      =         0.0000 Pyy      =         0.0000 Pzz      =         0.0000 
Pxy      =         0.0000 Pxz      =         0.0000 Pyz      =         0.0000 
Lx       =        15.0000 Ly       =        15.0000 Lz       =       255.0510 
---------------- Step      182 ----- CPU =      5.9529 (sec) ----------------
TotEng   =         0.0000 PotEng   =         0.0000 KinEng   =         0.0000 
Temp     =         0.0000 E_vdwl   =         0.0000 Press    =         0.0000 
Pxx      =         0.0000 Pyy      =         0.0000 Pzz      =         0.0000 
Pxy      =         0.0000 Pxz      =         0.0000 Pyz      =         0.0000 
Lx       =        15.0000 Ly       =        15.0000 Lz       =       255.0510 
---------------- Step      183 ----- CPU =      5.9941 (sec) ----------------
TotEng   =         0.0000 PotEng   =         0.0000 KinEng   =         0.0000 
Temp     =         0.0000 E_vdwl   =         0.0000 Press    =         0.0000 
Pxx      =         0.0000 Pyy      =         0.0000 Pzz      =         0.0000 
Pxy      =         0.0000 Pxz      =         0.0000 Pyz      =         0.0000 
Lx       =        15.0000 Ly       =        15.0000 Lz       =       255.0510 
---------------- Step      184 ----- CPU =      6.0388 (sec) ----------------
TotEng   =         0.0000 PotEng   =         0.0000 KinEng   =         0.0000 
Temp     =         0.0000 E_vdwl   =         0.0000 Press    =         0.0000 
Pxx      =         0.0000 Pyy      =         0.0000 Pzz      =         0.0000 
Pxy      =         0.0000 Pxz      =         0.0000 Pyz      =         0.0000 
Lx       =        15.0000 Ly       =        15.0000 Lz       =       255.0510 
---------------- Step      185 ----- CPU =      6.0697 (sec) ----------------
TotEng   =         0.0000 PotEng   =         0.0000 KinEng   =         0.0000 
Temp     =         0.0000 E_vdwl   =         0.0000 Press    =         0.0000 
Pxx      =         0.0000 Pyy      =         0.0000 Pzz      =         0.0000 
Pxy      =         0.0000 Pxz      =         0.0000 Pyz      =         0.0000 
Lx       =        15.0000 Ly       =        15.0000 Lz       =       255.0510 
---------------- Step      186 ----- CPU =      6.1038 (sec) ----------------
TotEng   =         0.0000 PotEng   =         0.0000 KinEng   =         0.0000 
Temp     =         0.0000 E_vdwl   =         0.0000 Press    =         0.0000 
Pxx      =         0.0000 Pyy      =         0.0000 Pzz      =         0.0000 
Pxy      =         0.0000 Pxz      =         0.0000 Pyz      =         0.0000 
Lx       =        15.0000 Ly       =        15.0000 Lz       =       255.0510 
---------------- Step      187 ----- CPU =      6.1314 (sec) ----------------
TotEng   =         0.0000 PotEng   =         0.0000 KinEng   =         0.0000 
Temp     =         0.0000 E_vdwl   =         0.0000 Press    =         0.0000 
Pxx      =         0.0000 Pyy      =         0.0000 Pzz      =         0.0000 
Pxy      =         0.0000 Pxz      =         0.0000 Pyz      =         0.0000 
Lx       =        15.0000 Ly       =        15.0000 Lz       =       255.0510 
---------------- Step      188 ----- CPU =      6.1657 (sec) ----------------
TotEng   =         0.0000 PotEng   =         0.0000 KinEng   =         0.0000 
Temp     =         0.0000 E_vdwl   =         0.0000 Press    =         0.0000 
Pxx      =         0.0000 Pyy      =         0.0000 Pzz      =         0.0000 
Pxy      =         0.0000 Pxz      =         0.0000 Pyz      =         0.0000 
Lx       =        15.0000 Ly       =        15.0000 Lz       =       255.0510 
---------------- Step      189 ----- CPU =      6.2056 (sec) ----------------
TotEng   =         0.0000 PotEng   =         0.0000 KinEng   =         0.0000 
Temp     =         0.0000 E_vdwl   =         0.0000 Press    =         0.0000 
Pxx      =         0.0000 Pyy      =         0.0000 Pzz      =         0.0000 
Pxy      =         0.0000 Pxz      =         0.0000 Pyz      =         0.0000 
Lx       =        15.0000 Ly       =        15.0000 Lz       =       255.0510 
---------------- Step      190 ----- CPU =      6.2450 (sec) ----------------
TotEng   =         0.0000 PotEng   =         0.0000 KinEng   =         0.0000 
Temp     =         0.0000 E_vdwl   =         0.0000 Press    =         0.0000 
Pxx      =         0.0000 Pyy      =         0.0000 Pzz      =         0.0000 
Pxy      =         0.0000 Pxz      =         0.0000 Pyz      =         0.0000 
Lx       =        15.0000 Ly       =        15.0000 Lz       =       255.0510 
---------------- Step      191 ----- CPU =      6.2867 (sec) ----------------
TotEng   =         0.0000 PotEng   =         0.0000 KinEng   =         0.0000 
Temp     =         0.0000 E_vdwl   =         0.0000 Press    =         0.0000 
Pxx      =         0.0000 Pyy      =         0.0000 Pzz      =         0.0000 
Pxy      =         0.0000 Pxz      =         0.0000 Pyz      =         0.0000 
Lx       =        15.0000 Ly       =        15.0000 Lz       =       255.0510 
---------------- Step      192 ----- CPU =      6.3165 (sec) ----------------
TotEng   =         0.0000 PotEng   =         0.0000 KinEng   =         0.0000 
Temp     =         0.0000 E_vdwl   =         0.0000 Press    =         0.0000 
Pxx      =         0.0000 Pyy      =         0.0000 Pzz      =         0.0000 
Pxy      =         0.0000 Pxz      =         0.0000 Pyz      =         0.0000 
Lx       =        15.0000 Ly       =        15.0000 Lz       =       255.0510 
---------------- Step      193 ----- CPU =      6.3498 (sec) ----------------
TotEng   =         0.0000 PotEng   =         0.0000 KinEng   =         0.0000 
Temp     =         0.0000 E_vdwl   =         0.0000 Press    =         0.0000 
Pxx      =         0.0000 Pyy      =         0.0000 Pzz      =         0.0000 
Pxy      =         0.0000 Pxz      =         0.0000 Pyz      =         0.0000 
Lx       =        15.0000 Ly       =        15.0000 Lz       =       255.0510 
---------------- Step      194 ----- CPU =      6.3799 (sec) ----------------
TotEng   =         0.0000 PotEng   =         0.0000 KinEng   =         0.0000 
Temp     =         0.0000 E_vdwl   =         0.0000 Press    =         0.0000 
Pxx      =         0.0000 Pyy      =         0.0000 Pzz      =         0.0000 
Pxy      =         0.0000 Pxz      =         0.0000 Pyz      =         0.0000 
Lx       =        15.0000 Ly       =        15.0000 Lz       =       255.0510 
---------------- Step      195 ----- CPU =      6.4156 (sec) ----------------
TotEng   =         0.0000 PotEng   =         0.0000 KinEng   =         0.0000 
Temp     =         0.0000 E_vdwl   =         0.0000 Press    =         0.0000 
Pxx      =         0.0000 Pyy      =         0.0000 Pzz      =         0.0000 
Pxy      =         0.0000 Pxz      =         0.0000 Pyz      =         0.0000 
Lx       =        15.0000 Ly       =        15.0000 Lz       =       255.0510 
---------------- Step      196 ----- CPU =      6.4686 (sec) ----------------
TotEng   =         0.0000 PotEng   =         0.0000 KinEng   =         0.0000 
Temp     =         0.0000 E_vdwl   =         0.0000 Press    =         0.0000 
Pxx      =         0.0000 Pyy      =         0.0000 Pzz      =         0.0000 
Pxy      =         0.0000 Pxz      =         0.0000 Pyz      =         0.0000 
Lx       =        15.0000 Ly       =        15.0000 Lz       =       255.0510 
---------------- Step      197 ----- CPU =      6.5297 (sec) ----------------
TotEng   =         0.0000 PotEng   =         0.0000 KinEng   =         0.0000 
Temp     =         0.0000 E_vdwl   =         0.0000 Press    =         0.0000 
Pxx      =         0.0000 Pyy      =         0.0000 Pzz      =         0.0000 
Pxy      =         0.0000 Pxz      =         0.0000 Pyz      =         0.0000 
Lx       =        15.0000 Ly       =        15.0000 Lz       =       255.0510 
---------------- Step      198 ----- CPU =      6.5893 (sec) ----------------
TotEng   =         0.0000 PotEng   =         0.0000 KinEng   =         0.0000 
Temp     =         0.0000 E_vdwl   =         0.0000 Press    =         0.0000 
Pxx      =         0.0000 Pyy      =         0.0000 Pzz      =         0.0000 
Pxy      =         0.0000 Pxz      =         0.0000 Pyz      =         0.0000 
Lx       =        15.0000 Ly       =        15.0000 Lz       =       255.0510 
---------------- Step      199 ----- CPU =      6.6424 (sec) ----------------
TotEng   =         0.0000 PotEng   =         0.0000 KinEng   =         0.0000 
Temp     =         0.0000 E_vdwl   =         0.0000 Press    =         0.0000 
Pxx      =         0.0000 Pyy      =         0.0000 Pzz      =         0.0000 
Pxy      =         0.0000 Pxz      =         0.0000 Pyz      =         0.0000 
Lx       =        15.0000 Ly       =        15.0000 Lz       =       255.0510 
---------------- Step      200 ----- CPU =      6.6877 (sec) ----------------
TotEng   =         0.0000 PotEng   =         0.0000 KinEng   =         0.0000 
Temp     =         0.0000 E_vdwl   =         0.0000 Press    =         0.0000 
Pxx      =         0.0000 Pyy      =         0.0000 Pzz      =         0.0000 
Pxy      =         0.0000 Pxz      =         0.0000 Pyz      =         0.0000 
Lx       =        15.0000 Ly       =        15.0000 Lz       =       255.0510 
Loop time of 6.68775 on 4 procs for 200 steps with 4050 atoms

Performance: 1.292 ns/day, 18.577 hours/ns, 29.905 timesteps/s
99.5% CPU use with 4 MPI tasks x no OpenMP threads

MPI task timing breakdown:
Section |  min time  |  avg time  |  max time  |%varavg| %total
---------------------------------------------------------------
Pair    | 0.0059671  | 0.0062785  | 0.0066087  |   0.4 |  0.09
Bond    | 2.5749e-05 | 3.4153e-05 | 4.0054e-05 |   0.0 |  0.00
Neigh   | 0          | 0          | 0          |   0.0 |  0.00
Comm    | 0.0032644  | 0.0035663  | 0.0039437  |   0.4 |  0.05
Output  | 0.026531   | 0.029191   | 0.036932   |   2.6 |  0.44
Modify  | 6.6303     | 6.6345     | 6.6439     |   0.2 | 99.20
Other   |            | 0.01422    |            |       |  0.21

Nlocal:    1012.5 ave 1075 max 950 min
Histogram: 2 0 0 0 0 0 0 0 0 2
Nghost:    1392.5 ave 1475 max 1310 min
Histogram: 2 0 0 0 0 0 0 0 0 2
Neighs:    7012.5 ave 7525 max 6500 min
Histogram: 1 1 0 0 0 0 0 0 1 1
FullNghs:  13620 ave 14470 max 12770 min
Histogram: 2 0 0 0 0 0 0 0 0 2

Total # of neighbors = 54480
Ave neighs/atom = 13.4519
Ave special neighs/atom = 0
Neighbor list builds = 0
Dangerous builds = 0

Please see the log.cite file for references relevant to this simulation

Total wall time: 0:00:06
