ITEM: TIMESTEP
0
ITEM: NUMBER OF ATOMS
4050
ITEM: BOX BOUNDS pp pp ss
0.0000000000000000e+00 1.5000000000000000e+01
0.0000000000000000e+00 1.5000000000000000e+01
-2.5500000000000002e-02 2.5502549999999999e+02
ITEM: ATOMS id type x y z q c_0[1] c_0[2] 
1 1 0 0 0 0.0988047 0 0 
3 1 3 0 0 0.0768401 0 0 
5 1 6 0 0 0.06366 0 0 
7 1 9 0 0 0.0669655 0 0 
9 1 12 0 0 0.0911582 0 0 
11 1 0 3 0 0.0768401 0 0 
13 1 3 3 0 0.062792 0 0 
15 1 6 3 0 0.051878 0 0 
17 1 9 3 0 0.0562775 0 0 
19 1 12 3 0 0.0714103 0 0 
21 1 0 6 0 0.06366 0 0 
23 1 3 6 0 0.0518779 0 0 
25 1 6 6 0 0.0482732 0 0 
27 1 9 6 0 0.0478244 0 0 
29 1 12 6 0 0.060036 0 0 
31 1 0 9 0 0.0669654 0 0 
33 1 3 9 0 0.0562775 0 0 
35 1 6 9 0 0.0478243 0 0 
37 1 9 9 0 0.0511919 0 0 
39 1 12 9 0 0.0632604 0 0 
41 1 0 12 0 0.0911582 0 0 
43 1 3 12 0 0.0714102 0 0 
45 1 6 12 0 0.060036 0 0 
47 1 9 12 0 0.0632604 0 0 
49 1 12 12 0 0.0841408 0 0 
51 1 0 0 3 0.258079 0 0 
53 1 3 0 3 0.18789 0 0 
55 1 6 0 3 0.143638 0 0 
57 1 9 0 3 0.157244 0 0 
59 1 12 0 3 0.233678 0 0 
2 2 1.5 1.5 1.5 -0.164655 0 0 
4 2 4.5 1.5 1.5 -0.117071 0 0 
6 2 7.5 1.5 1.5 -0.108969 0 0 
8 2 10.5 1.5 1.5 -0.134989 0 0 
10 2 13.5 1.5 1.5 -0.178859 0 0 
61 1 0 3 3 0.18789 0 0 
63 1 3 3 3 0.142449 0 0 
65 1 6 3 3 0.117764 0 0 
67 1 9 3 3 0.123136 0 0 
69 1 12 3 3 0.172471 0 0 
12 2 1.5 4.5 1.5 -0.117071 0 0 
14 2 4.5 4.5 1.5 -0.08984 0 0 
16 2 7.5 4.5 1.5 -0.0868318 0 0 
18 2 10.5 4.5 1.5 -0.0998021 0 0 
20 2 13.5 4.5 1.5 -0.124715 0 0 
71 1 0 6 3 0.143638 0 0 
73 1 3 6 3 0.117764 0 0 
75 1 6 6 3 0.0984316 0 0 
77 1 9 6 3 0.105971 0 0 
79 1 12 6 3 0.134619 0 0 
22 2 1.5 7.5 1.5 -0.108969 0 0 
24 2 4.5 7.5 1.5 -0.0868319 0 0 
26 2 7.5 7.5 1.5 -0.0826411 0 0 
28 2 10.5 7.5 1.5 -0.0948735 0 0 
30 2 13.5 7.5 1.5 -0.116058 0 0 
81 1 0 9 3 0.157244 0 0 
83 1 3 9 3 0.123136 0 0 
85 1 6 9 3 0.105971 0 0 
87 1 9 9 3 0.109596 0 0 
89 1 12 9 3 0.146022 0 0 
32 2 1.5 10.5 1.5 -0.134989 0 0 
34 2 4.5 10.5 1.5 -0.0998022 0 0 
36 2 7.5 10.5 1.5 -0.0948735 0 0 
38 2 10.5 10.5 1.5 -0.113505 0 0 
40 2 13.5 10.5 1.5 -0.145363 0 0 
91 1 0 12 3 0.233678 0 0 
93 1 3 12 3 0.172471 0 0 
95 1 6 12 3 0.134619 0 0 
97 1 9 12 3 0.146022 0 0 
99 1 12 12 3 0.213302 0 0 
42 2 1.5 13.5 1.5 -0.178859 0 0 
44 2 4.5 13.5 1.5 -0.124715 0 0 
46 2 7.5 13.5 1.5 -0.116058 0 0 
48 2 10.5 13.5 1.5 -0.145363 0 0 
50 2 13.5 13.5 1.5 -0.195443 0 0 
52 2 1.5 1.5 4.5 -0.239497 0 0 
54 2 4.5 1.5 4.5 -0.160769 0 0 
56 2 7.5 1.5 4.5 -0.148631 0 0 
58 2 10.5 1.5 4.5 -0.191317 0 0 
60 2 13.5 1.5 4.5 -0.26347 0 0 
62 2 1.5 4.5 4.5 -0.16077 0 0 
64 2 4.5 4.5 4.5 -0.122153 0 0 
66 2 7.5 4.5 4.5 -0.112888 0 0 
68 2 10.5 4.5 4.5 -0.137724 0 0 
70 2 13.5 4.5 4.5 -0.173329 0 0 
72 2 1.5 7.5 4.5 -0.148631 0 0 
74 2 4.5 7.5 4.5 -0.112888 0 0 
76 2 7.5 7.5 4.5 -0.109314 0 0 
78 2 10.5 7.5 4.5 -0.126627 0 0 
80 2 13.5 7.5 4.5 -0.158194 0 0 
82 2 1.5 10.5 4.5 -0.191317 0 0 
84 2 4.5 10.5 4.5 -0.137724 0 0 
86 2 7.5 10.5 4.5 -0.126627 0 0 
88 2 10.5 10.5 4.5 -0.159425 0 0 
90 2 13.5 10.5 4.5 -0.209835 0 0 
92 2 1.5 13.5 4.5 -0.26347 0 0 
94 2 4.5 13.5 4.5 -0.173329 0 0 
96 2 7.5 13.5 4.5 -0.158194 0 0 
98 2 10.5 13.5 4.5 -0.209835 0 0 
100 2 13.5 13.5 4.5 -0.290907 0 0 
101 1 0 0 6 0.303168 0 0 
103 1 3 0 6 0.216779 0 0 
105 1 6 0 6 0.163668 0 0 
107 1 9 0 6 0.179023 0 0 
109 1 12 0 6 0.273352 0 0 
111 1 0 3 6 0.216779 0 0 
113 1 3 3 6 0.166582 0 0 
115 1 6 3 6 0.128896 0 0 
117 1 9 3 6 0.142163 0 0 
119 1 12 3 6 0.198918 0 0 
121 1 0 6 6 0.163668 0 0 
123 1 3 6 6 0.128895 0 0 
125 1 6 6 6 0.112331 0 0 
127 1 9 6 6 0.115235 0 0 
129 1 12 6 6 0.152441 0 0 
131 1 0 9 6 0.179022 0 0 
133 1 3 9 6 0.142163 0 0 
135 1 6 9 6 0.115235 0 0 
137 1 9 9 6 0.125243 0 0 
139 1 12 9 6 0.166133 0 0 
141 1 0 12 6 0.273352 0 0 
143 1 3 12 6 0.198918 0 0 
145 1 6 12 6 0.152441 0 0 
147 1 9 12 6 0.166133 0 0 
149 1 12 12 6 0.248668 0 0 
102 2 1.5 1.5 7.5 -0.251931 0 0 
104 2 4.5 1.5 7.5 -0.169914 0 0 
106 2 7.5 1.5 7.5 -0.154025 0 0 
108 2 10.5 1.5 7.5 -0.203235 0 0 
110 2 13.5 1.5 7.5 -0.276156 0 0 
112 2 1.5 4.5 7.5 -0.169914 0 0 
114 2 4.5 4.5 7.5 -0.125663 0 0 
116 2 7.5 4.5 7.5 -0.119306 0 0 
118 2 10.5 4.5 7.5 -0.142955 0 0 
120 2 13.5 4.5 7.5 -0.182944 0 0 
122 2 1.5 7.5 7.5 -0.154025 0 0 
124 2 4.5 7.5 7.5 -0.119306 0 0 
126 2 7.5 7.5 7.5 -0.112 0 0 
128 2 10.5 7.5 7.5 -0.132601 0 0 
130 2 13.5 7.5 7.5 -0.166141 0 0 
132 2 1.5 10.5 7.5 -0.203235 0 0 
134 2 4.5 10.5 7.5 -0.142955 0 0 
136 2 7.5 10.5 7.5 -0.132601 0 0 
138 2 10.5 10.5 7.5 -0.168551 0 0 
140 2 13.5 10.5 7.5 -0.220063 0 0 
142 2 1.5 13.5 7.5 -0.276156 0 0 
144 2 4.5 13.5 7.5 -0.182944 0 0 
146 2 7.5 13.5 7.5 -0.166141 0 0 
148 2 10.5 13.5 7.5 -0.220063 0 0 
150 2 13.5 13.5 7.5 -0.306925 0 0 
151 1 0 0 9 0.303979 0 0 
153 1 3 0 9 0.220944 0 0 
155 1 6 0 9 0.165396 0 0 
157 1 9 0 9 0.182436 0 0 
159 1 12 0 9 0.275764 0 0 
161 1 0 3 9 0.220944 0 0 
163 1 3 3 9 0.166769 0 0 
165 1 6 3 9 0.132949 0 0 
167 1 9 3 9 0.143067 0 0 
169 1 12 3 9 0.201673 0 0 
171 1 0 6 9 0.165396 0 0 
173 1 3 6 9 0.132949 0 0 
175 1 6 6 9 0.111489 0 0 
177 1 9 6 9 0.118369 0 0 
179 1 12 6 9 0.154537 0 0 
181 1 0 9 9 0.182436 0 0 
183 1 3 9 9 0.143067 0 0 
185 1 6 9 9 0.118369 0 0 
187 1 9 9 9 0.125671 0 0 
189 1 12 9 9 0.169373 0 0 
191 1 0 12 9 0.275764 0 0 
193 1 3 12 9 0.201673 0 0 
195 1 6 12 9 0.154537 0 0 
197 1 9 12 9 0.169373 0 0 
199 1 12 12 9 0.25054 0 0 
152 2 1.5 1.5 10.5 -0.250775 0 0 
154 2 4.5 1.5 10.5 -0.16986 0 0 
156 2 7.5 1.5 10.5 -0.155999 0 0 
158 2 10.5 1.5 10.5 -0.201575 0 0 
160 2 13.5 1.5 10.5 -0.276034 0 0 
162 2 1.5 4.5 10.5 -0.16986 0 0 
164 2 4.5 4.5 10.5 -0.127116 0 0 
166 2 7.5 4.5 10.5 -0.118616 0 0 
168 2 10.5 4.5 10.5 -0.144244 0 0 
170 2 13.5 4.5 10.5 -0.183032 0 0 
172 2 1.5 7.5 10.5 -0.155999 0 0 
174 2 4.5 7.5 10.5 -0.118616 0 0 
176 2 7.5 7.5 10.5 -0.112714 0 0 
178 2 10.5 7.5 10.5 -0.133687 0 0 
180 2 13.5 7.5 10.5 -0.166115 0 0 
182 2 1.5 10.5 10.5 -0.201575 0 0 
184 2 4.5 10.5 10.5 -0.144244 0 0 
186 2 7.5 10.5 10.5 -0.133687 0 0 
188 2 10.5 10.5 10.5 -0.166997 0 0 
190 2 13.5 10.5 10.5 -0.221628 0 0 
192 2 1.5 13.5 10.5 -0.276034 0 0 
194 2 4.5 13.5 10.5 -0.183032 0 0 
196 2 7.5 13.5 10.5 -0.166115 0 0 
198 2 10.5 13.5 10.5 -0.221628 0 0 
200 2 13.5 13.5 10.5 -0.30311 0 0 
201 1 0 0 12 0.302944 0 0 
203 1 3 0 12 0.219345 0 0 
205 1 6 0 12 0.165516 0 0 
207 1 9 0 12 0.182624 0 0 
209 1 12 0 12 0.273488 0 0 
211 1 0 3 12 0.219345 0 0 
213 1 3 3 12 0.166869 0 0 
215 1 6 3 12 0.133075 0 0 
217 1 9 3 12 0.142407 0 0 
219 1 12 3 12 0.201599 0 0 
221 1 0 6 12 0.165516 0 0 
223 1 3 6 12 0.133075 0 0 
225 1 6 6 12 0.111214 0 0 
227 1 9 6 12 0.118821 0 0 
229 1 12 6 12 0.154299 0 0 
231 1 0 9 12 0.182624 0 0 
233 1 3 9 12 0.142407 0 0 
235 1 6 9 12 0.118821 0 0 
237 1 9 9 12 0.125517 0 0 
239 1 12 9 12 0.169009 0 0 
241 1 0 12 12 0.273488 0 0 
243 1 3 12 12 0.201599 0 0 
245 1 6 12 12 0.154299 0 0 
247 1 9 12 12 0.169009 0 0 
249 1 12 12 12 0.249624 0 0 
202 2 1.5 1.5 13.5 -0.250429 0 0 
204 2 4.5 1.5 13.5 -0.169393 0 0 
206 2 7.5 1.5 13.5 -0.155422 0 0 
208 2 10.5 1.5 13.5 -0.201794 0 0 
210 2 13.5 1.5 13.5 -0.274232 0 0 
212 2 1.5 4.5 13.5 -0.169393 0 0 
214 2 4.5 4.5 13.5 -0.127174 0 0 
216 2 7.5 4.5 13.5 -0.118424 0 0 
218 2 10.5 4.5 13.5 -0.144077 0 0 
220 2 13.5 4.5 13.5 -0.182694 0 0 
222 2 1.5 7.5 13.5 -0.155422 0 0 
224 2 4.5 7.5 13.5 -0.118424 0 0 
226 2 7.5 7.5 13.5 -0.113443 0 0 
228 2 10.5 7.5 13.5 -0.132429 0 0 
230 2 13.5 7.5 13.5 -0.166866 0 0 
232 2 1.5 10.5 13.5 -0.201794 0 0 
234 2 4.5 10.5 13.5 -0.144077 0 0 
236 2 7.5 10.5 13.5 -0.132429 0 0 
238 2 10.5 10.5 13.5 -0.168499 0 0 
240 2 13.5 10.5 13.5 -0.219216 0 0 
242 2 1.5 13.5 13.5 -0.274232 0 0 
244 2 4.5 13.5 13.5 -0.182694 0 0 
246 2 7.5 13.5 13.5 -0.166866 0 0 
248 2 10.5 13.5 13.5 -0.219216 0 0 
250 2 13.5 13.5 13.5 -0.303703 0 0 
251 1 0 0 15 0.302244 0 0 
253 1 3 0 15 0.218679 0 0 
255 1 6 0 15 0.166248 0 0 
257 1 9 0 15 0.181099 0 0 
259 1 12 0 15 0.273941 0 0 
261 1 0 3 15 0.218679 0 0 
263 1 3 3 15 0.167898 0 0 
265 1 6 3 15 0.130946 0 0 
267 1 9 3 15 0.14423 0 0 
269 1 12 3 15 0.200161 0 0 
271 1 0 6 15 0.166248 0 0 
273 1 3 6 15 0.130946 0 0 
275 1 6 6 15 0.113665 0 0 
277 1 9 6 15 0.116657 0 0 
279 1 12 6 15 0.155002 0 0 
281 1 0 9 15 0.181099 0 0 
283 1 3 9 15 0.14423 0 0 
285 1 6 9 15 0.116657 0 0 
287 1 9 9 15 0.126913 0 0 
289 1 12 9 15 0.168326 0 0 
291 1 0 12 15 0.273942 0 0 
293 1 3 12 15 0.200161 0 0 
295 1 6 12 15 0.155002 0 0 
297 1 9 12 15 0.168326 0 0 
299 1 12 12 15 0.249177 0 0 
252 2 1.5 1.5 16.5 -0.249787 0 0 
254 2 4.5 1.5 16.5 -0.169966 0 0 
256 2 7.5 1.5 16.5 -0.154697 0 0 
258 2 10.5 1.5 16.5 -0.201914 0 0 
260 2 13.5 1.5 16.5 -0.274184 0 0 
262 2 1.5 4.5 16.5 -0.169966 0 0 
264 2 4.5 4.5 16.5 -0.125914 0 0 
266 2 7.5 4.5 16.5 -0.119544 0 0 
268 2 10.5 4.5 16.5 -0.143237 0 0 
270 2 13.5 4.5 16.5 -0.182717 0 0 
272 2 1.5 7.5 16.5 -0.154697 0 0 
274 2 4.5 7.5 16.5 -0.119544 0 0 
276 2 7.5 7.5 16.5 -0.112102 0 0 
278 2 10.5 7.5 16.5 -0.133328 0 0 
280 2 13.5 7.5 16.5 -0.166276 0 0 
282 2 1.5 10.5 16.5 -0.201914 0 0 
284 2 4.5 10.5 16.5 -0.143237 0 0 
286 2 7.5 10.5 16.5 -0.133328 0 0 
288 2 10.5 10.5 16.5 -0.167475 0 0 
290 2 13.5 10.5 16.5 -0.21961 0 0 
292 2 1.5 13.5 16.5 -0.274184 0 0 
294 2 4.5 13.5 16.5 -0.182717 0 0 
296 2 7.5 13.5 16.5 -0.166276 0 0 
298 2 10.5 13.5 16.5 -0.21961 0 0 
300 2 13.5 13.5 16.5 -0.303139 0 0 
301 1 0 0 18 0.301914 0 0 
303 1 3 0 18 0.219468 0 0 
305 1 6 0 18 0.164933 0 0 
307 1 9 0 18 0.182201 0 0 
309 1 12 0 18 0.273338 0 0 
311 1 0 3 18 0.219468 0 0 
313 1 3 3 18 0.166032 0 0 
315 1 6 3 18 0.13328 0 0 
317 1 9 3 18 0.142088 0 0 
319 1 12 3 18 0.201105 0 0 
321 1 0 6 18 0.164933 0 0 
323 1 3 6 18 0.133281 0 0 
325 1 6 6 18 0.11075 0 0 
327 1 9 6 18 0.119009 0 0 
329 1 12 6 18 0.153926 0 0 
331 1 0 9 18 0.182201 0 0 
333 1 3 9 18 0.142088 0 0 
335 1 6 9 18 0.119009 0 0 
337 1 9 9 18 0.125 0 0 
339 1 12 9 18 0.168991 0 0 
341 1 0 12 18 0.273338 0 0 
343 1 3 12 18 0.201105 0 0 
345 1 6 12 18 0.153926 0 0 
347 1 9 12 18 0.168991 0 0 
349 1 12 12 18 0.248901 0 0 
302 2 1.5 1.5 19.5 -0.250169 0 0 
304 2 4.5 1.5 19.5 -0.168966 0 0 
306 2 7.5 1.5 19.5 -0.155901 0 0 
308 2 10.5 1.5 19.5 -0.200853 0 0 
310 2 13.5 1.5 19.5 -0.274805 0 0 
312 2 1.5 4.5 19.5 -0.168966 0 0 
314 2 4.5 4.5 19.5 -0.127482 0 0 
316 2 7.5 4.5 19.5 -0.118033 0 0 
318 2 10.5 4.5 19.5 -0.14409 0 0 
320 2 13.5 4.5 19.5 -0.182538 0 0 
322 2 1.5 7.5 19.5 -0.155901 0 0 
324 2 4.5 7.5 19.5 -0.118033 0 0 
326 2 7.5 7.5 19.5 -0.113075 0 0 
328 2 10.5 7.5 19.5 -0.133177 0 0 
330 2 13.5 7.5 19.5 -0.165736 0 0 
332 2 1.5 10.5 19.5 -0.200853 0 0 
334 2 4.5 10.5 19.5 -0.14409 0 0 
336 2 7.5 10.5 19.5 -0.133177 0 0 
338 2 10.5 10.5 19.5 -0.166781 0 0 
340 2 13.5 10.5 19.5 -0.22065 0 0 
342 2 1.5 13.5 19.5 -0.274805 0 0 
344 2 4.5 13.5 19.5 -0.182538 0 0 
346 2 7.5 13.5 19.5 -0.165736 0 0 
348 2 10.5 13.5 19.5 -0.22065 0 0 
350 2 13.5 13.5 19.5 -0.302047 0 0 
351 1 0 0 21 0.302297 0 0 
353 1 3 0 21 0.219039 0 0 
355 1 6 0 21 0.165361 0 0 
357 1 9 0 21 0.181939 0 0 
359 1 12 0 21 0.27334 0 0 
361 1 0 3 21 0.219039 0 0 
363 1 3 3 21 0.166788 0 0 
365 1 6 3 21 0.132346 0 0 
367 1 9 3 21 0.142859 0 0 
369 1 12 3 21 0.200797 0 0 
371 1 0 6 21 0.165361 0 0 
373 1 3 6 21 0.132346 0 0 
375 1 6 6 21 0.111981 0 0 
377 1 9 6 21 0.117872 0 0 
379 1 12 6 21 0.154476 0 0 
381 1 0 9 21 0.181939 0 0 
383 1 3 9 21 0.142859 0 0 
385 1 6 9 21 0.117872 0 0 
387 1 9 9 21 0.126089 0 0 
389 1 12 9 21 0.168376 0 0 
391 1 0 12 21 0.27334 0 0 
393 1 3 12 21 0.200797 0 0 
395 1 6 12 21 0.154476 0 0 
397 1 9 12 21 0.168376 0 0 
399 1 12 12 21 0.249341 0 0 
352 2 1.5 1.5 22.5 -0.249945 0 0 
354 2 4.5 1.5 22.5 -0.169871 0 0 
356 2 7.5 1.5 22.5 -0.154641 0 0 
358 2 10.5 1.5 22.5 -0.202058 0 0 
360 2 13.5 1.5 22.5 -0.273996 0 0 
362 2 1.5 4.5 22.5 -0.169871 0 0 
364 2 4.5 4.5 22.5 -0.126197 0 0 
366 2 7.5 4.5 22.5 -0.11907 0 0 
368 2 10.5 4.5 22.5 -0.143659 0 0 
370 2 13.5 4.5 22.5 -0.182443 0 0 
372 2 1.5 7.5 22.5 -0.154641 0 0 
374 2 4.5 7.5 22.5 -0.11907 0 0 
376 2 7.5 7.5 22.5 -0.11295 0 0 
378 2 10.5 7.5 22.5 -0.132308 0 0 
380 2 13.5 7.5 22.5 -0.166991 0 0 
382 2 1.5 10.5 22.5 -0.202058 0 0 
384 2 4.5 10.5 22.5 -0.143659 0 0 
386 2 7.5 10.5 22.5 -0.132308 0 0 
388 2 10.5 10.5 22.5 -0.168697 0 0 
390 2 13.5 10.5 22.5 -0.218641 0 0 
392 2 1.5 13.5 22.5 -0.273996 0 0 
394 2 4.5 13.5 22.5 -0.182443 0 0 
396 2 7.5 13.5 22.5 -0.166991 0 0 
398 2 10.5 13.5 22.5 -0.218641 0 0 
400 2 13.5 13.5 22.5 -0.303995 0 0 
401 1 0 0 24 0.302403 0 0 
403 1 3 0 24 0.218426 0 0 
405 1 6 0 24 0.166312 0 0 
407 1 9 0 24 0.181009 0 0 
409 1 12 0 24 0.2739 0 0 
411 1 0 3 24 0.218426 0 0 
413 1 3 3 24 0.16804 0 0 
415 1 6 3 24 0.13092 0 0 
417 1 9 3 24 0.143963 0 0 
419 1 12 3 24 0.200357 0 0 
421 1 0 6 24 0.166312 0 0 
423 1 3 6 24 0.13092 0 0 
425 1 6 6 24 0.113314 0 0 
427 1 9 6 24 0.117093 0 0 
429 1 12 6 24 0.154555 0 0 
431 1 0 9 24 0.181009 0 0 
433 1 3 9 24 0.143963 0 0 
435 1 6 9 24 0.117093 0 0 
437 1 9 9 24 0.126287 0 0 
439 1 12 9 24 0.168674 0 0 
441 1 0 12 24 0.2739 0 0 
443 1 3 12 24 0.200357 0 0 
445 1 6 12 24 0.154555 0 0 
447 1 9 12 24 0.168674 0 0 
449 1 12 12 24 0.248895 0 0 
402 2 1.5 1.5 25.5 -0.250135 0 0 
404 2 4.5 1.5 25.5 -0.169297 0 0 
406 2 7.5 1.5 25.5 -0.15538 0 0 
408 2 10.5 1.5 25.5 -0.201408 0 0 
410 2 13.5 1.5 25.5 -0.274411 0 0 
412 2 1.5 4.5 25.5 -0.169297 0 0 
414 2 4.5 4.5 25.5 -0.126764 0 0 
416 2 7.5 4.5 25.5 -0.118874 0 0 
418 2 10.5 4.5 25.5 -0.143418 0 0 
420 2 13.5 4.5 25.5 -0.182872 0 0 
422 2 1.5 7.5 25.5 -0.15538 0 0 
424 2 4.5 7.5 25.5 -0.118874 0 0 
426 2 7.5 7.5 25.5 -0.112268 0 0 
428 2 10.5 7.5 25.5 -0.133654 0 0 
430 2 13.5 7.5 25.5 -0.165672 0 0 
432 2 1.5 10.5 25.5 -0.201408 0 0 
434 2 4.5 10.5 25.5 -0.143418 0 0 
436 2 7.5 10.5 25.5 -0.133654 0 0 
438 2 10.5 10.5 25.5 -0.166683 0 0 
440 2 13.5 10.5 25.5 -0.220425 0 0 
442 2 1.5 13.5 25.5 -0.274411 0 0 
444 2 4.5 13.5 25.5 -0.182872 0 0 
446 2 7.5 13.5 25.5 -0.165672 0 0 
448 2 10.5 13.5 25.5 -0.220425 0 0 
450 2 13.5 13.5 25.5 -0.302449 0 0 
451 1 0 0 27 0.301674 0 0 
453 1 3 0 27 0.220012 0 0 
455 1 6 0 27 0.164322 0 0 
457 1 9 0 27 0.182685 0 0 
459 1 12 0 27 0.273145 0 0 
461 1 0 3 27 0.220012 0 0 
463 1 3 3 27 0.165212 0 0 
465 1 6 3 27 0.134017 0 0 
467 1 9 3 27 0.141679 0 0 
469 1 12 3 27 0.201131 0 0 
471 1 0 6 27 0.164322 0 0 
473 1 3 6 27 0.134016 0 0 
475 1 6 6 27 0.110248 0 0 
477 1 9 6 27 0.119078 0 0 
479 1 12 6 27 0.154159 0 0 
481 1 0 9 27 0.182685 0 0 
483 1 3 9 27 0.141679 0 0 
485 1 6 9 27 0.119078 0 0 
487 1 9 9 27 0.125267 0 0 
489 1 12 9 27 0.168591 0 0 
491 1 0 12 27 0.273145 0 0 
493 1 3 12 27 0.201131 0 0 
495 1 6 12 27 0.154159 0 0 
497 1 9 12 27 0.168591 0 0 
499 1 12 12 27 0.249271 0 0 
452 2 1.5 1.5 28.5 -0.249871 0 0 
454 2 4.5 1.5 28.5 -0.169489 0 0 
456 2 7.5 1.5 28.5 -0.155394 0 0 
458 2 10.5 1.5 28.5 -0.201187 0 0 
460 2 13.5 1.5 28.5 -0.274707 0 0 
462 2 1.5 4.5 28.5 -0.169489 0 0 
464 2 4.5 4.5 28.5 -0.126896 0 0 
466 2 7.5 4.5 28.5 -0.118358 0 0 
468 2 10.5 4.5 28.5 -0.14414 0 0 
470 2 13.5 4.5 28.5 -0.182271 0 0 
472 2 1.5 7.5 28.5 -0.155394 0 0 
474 2 4.5 7.5 28.5 -0.118358 0 0 
476 2 7.5 7.5 28.5 -0.113207 0 0 
478 2 10.5 7.5 28.5 -0.132621 0 0 
480 2 13.5 7.5 28.5 -0.166378 0 0 
482 2 1.5 10.5 28.5 -0.201187 0 0 
484 2 4.5 10.5 28.5 -0.14414 0 0 
486 2 7.5 10.5 28.5 -0.132621 0 0 
488 2 10.5 10.5 28.5 -0.16767 0 0 
490 2 13.5 10.5 28.5 -0.219867 0 0 
492 2 1.5 13.5 28.5 -0.274707 0 0 
494 2 4.5 13.5 28.5 -0.182271 0 0 
496 2 7.5 13.5 28.5 -0.166378 0 0 
498 2 10.5 13.5 28.5 -0.219867 0 0 
500 2 13.5 13.5 28.5 -0.302671 0 0 
501 1 0 0 30 0.302697 0 0 
503 1 3 0 30 0.218231 0 0 
505 1 6 0 30 0.166312 0 0 
507 1 9 0 30 0.181195 0 0 
509 1 12 0 30 0.273644 0 0 
511 1 0 3 30 0.218231 0 0 
513 1 3 3 30 0.168076 0 0 
515 1 6 3 30 0.131099 0 0 
517 1 9 3 30 0.143643 0 0 
519 1 12 3 30 0.200659 0 0 
521 1 0 6 30 0.166312 0 0 
523 1 3 6 30 0.131099 0 0 
525 1 6 6 30 0.112986 0 0 
527 1 9 6 30 0.117455 0 0 
529 1 12 6 30 0.154318 0 0 
531 1 0 9 30 0.181195 0 0 
533 1 3 9 30 0.143643 0 0 
535 1 6 9 30 0.117455 0 0 
537 1 9 9 30 0.126012 0 0 
539 1 12 9 30 0.168773 0 0 
541 1 0 12 30 0.273644 0 0 
543 1 3 12 30 0.200659 0 0 
545 1 6 12 30 0.154318 0 0 
547 1 9 12 30 0.168774 0 0 
549 1 12 12 30 0.248946 0 0 
502 2 1.5 1.5 31.5 -0.250201 0 0 
504 2 4.5 1.5 31.5 -0.169576 0 0 
506 2 7.5 1.5 31.5 -0.154833 0 0 
508 2 10.5 1.5 31.5 -0.20204 0 0 
510 2 13.5 1.5 31.5 -0.273882 0 0 
512 2 1.5 4.5 31.5 -0.169576 0 0 
514 2 4.5 4.5 31.5 -0.126412 0 0 
516 2 7.5 4.5 31.5 -0.119106 0 0 
518 2 10.5 4.5 31.5 -0.143393 0 0 
520 2 13.5 4.5 31.5 -0.18277 0 0 
522 2 1.5 7.5 31.5 -0.154833 0 0 
524 2 4.5 7.5 31.5 -0.119106 0 0 
526 2 7.5 7.5 31.5 -0.112606 0 0 
528 2 10.5 7.5 31.5 -0.132849 0 0 
530 2 13.5 7.5 31.5 -0.16654 0 0 
532 2 1.5 10.5 31.5 -0.20204 0 0 
534 2 4.5 10.5 31.5 -0.143393 0 0 
536 2 7.5 10.5 31.5 -0.132848 0 0 
538 2 10.5 10.5 31.5 -0.168071 0 0 
540 2 13.5 10.5 31.5 -0.21907 0 0 
542 2 1.5 13.5 31.5 -0.273882 0 0 
544 2 4.5 13.5 31.5 -0.18277 0 0 
546 2 7.5 13.5 31.5 -0.16654 0 0 
548 2 10.5 13.5 31.5 -0.21907 0 0 
550 2 13.5 13.5 31.5 -0.303766 0 0 
551 1 0 0 33 0.301938 0 0 
553 1 3 0 33 0.219253 0 0 
555 1 6 0 33 0.165405 0 0 
557 1 9 0 33 0.181677 0 0 
559 1 12 0 33 0.273679 0 0 
561 1 0 3 33 0.219253 0 0 
563 1 3 3 33 0.166811 0 0 
565 1 6 3 33 0.132059 0 0 
567 1 9 3 33 0.143311 0 0 
569 1 12 3 33 0.200405 0 0 
571 1 0 6 33 0.165405 0 0 
573 1 3 6 33 0.132059 0 0 
575 1 6 6 33 0.11246 0 0 
577 1 9 6 33 0.117379 0 0 
579 1 12 6 33 0.15479 0 0 
581 1 0 9 33 0.181677 0 0 
583 1 3 9 33 0.143311 0 0 
585 1 6 9 33 0.117379 0 0 
587 1 9 9 33 0.126459 0 0 
589 1 12 9 33 0.168256 0 0 
591 1 0 12 33 0.273679 0 0 
593 1 3 12 33 0.200405 0 0 
595 1 6 12 33 0.15479 0 0 
597 1 9 12 33 0.168256 0 0 
599 1 12 12 33 0.249268 0 0 
552 2 1.5 1.5 34.5 -0.249942 0 0 
554 2 4.5 1.5 34.5 -0.169391 0 0 
556 2 7.5 1.5 34.5 -0.155456 0 0 
558 2 10.5 1.5 34.5 -0.201194 0 0 
560 2 13.5 1.5 34.5 -0.274674 0 0 
562 2 1.5 4.5 34.5 -0.169391 0 0 
564 2 4.5 4.5 34.5 -0.126826 0 0 
566 2 7.5 4.5 34.5 -0.118632 0 0 
568 2 10.5 4.5 34.5 -0.143751 0 0 
570 2 13.5 4.5 34.5 -0.1826 0 0 
572 2 1.5 7.5 34.5 -0.155456 0 0 
574 2 4.5 7.5 34.5 -0.118632 0 0 
576 2 7.5 7.5 34.5 -0.112626 0 0 
578 2 10.5 7.5 34.5 -0.133312 0 0 
580 2 13.5 7.5 34.5 -0.165848 0 0 
582 2 1.5 10.5 34.5 -0.201194 0 0 
584 2 4.5 10.5 34.5 -0.14375 0 0 
586 2 7.5 10.5 34.5 -0.133312 0 0 
588 2 10.5 10.5 34.5 -0.166918 0 0 
590 2 13.5 10.5 34.5 -0.22041 0 0 
592 2 1.5 13.5 34.5 -0.274674 0 0 
594 2 4.5 13.5 34.5 -0.1826 0 0 
596 2 7.5 13.5 34.5 -0.165848 0 0 
598 2 10.5 13.5 34.5 -0.220409 0 0 
600 2 13.5 13.5 34.5 -0.302283 0 0 
601 1 0 0 36 0.30204 0 0 
603 1 3 0 36 0.219483 0 0 
605 1 6 0 36 0.164812 0 0 
607 1 9 0 36 0.182408 0 0 
609 1 12 0 36 0.273159 0 0 
611 1 0 3 36 0.219483 0 0 
613 1 3 3 36 0.165848 0 0 
615 1 6 3 36 0.133577 0 0 
617 1 9 3 36 0.141777 0 0 
619 1 12 3 36 0.201315 0 0 
621 1 0 6 36 0.164812 0 0 
623 1 3 6 36 0.133577 0 0 
625 1 6 6 36 0.110371 0 0 
627 1 9 6 36 0.119307 0 0 
629 1 12 6 36 0.153782 0 0 
631 1 0 9 36 0.182408 0 0 
633 1 3 9 36 0.141777 0 0 
635 1 6 9 36 0.119307 0 0 
637 1 9 9 36 0.124798 0 0 
639 1 12 9 36 0.169032 0 0 
641 1 0 12 36 0.273159 0 0 
643 1 3 12 36 0.201315 0 0 
645 1 6 12 36 0.153782 0 0 
647 1 9 12 36 0.169032 0 0 
649 1 12 12 36 0.248975 0 0 
602 2 1.5 1.5 37.5 -0.249979 0 0 
604 2 4.5 1.5 37.5 -0.169507 0 0 
606 2 7.5 1.5 37.5 -0.155248 0 0 
608 2 10.5 1.5 37.5 -0.201403 0 0 
610 2 13.5 1.5 37.5 -0.274488 0 0 
612 2 1.5 4.5 37.5 -0.169507 0 0 
614 2 4.5 4.5 37.5 -0.126764 0 0 
616 2 7.5 4.5 37.5 -0.118575 0 0 
618 2 10.5 4.5 37.5 -0.143929 0 0 
620 2 13.5 4.5 37.5 -0.182403 0 0 
622 2 1.5 7.5 37.5 -0.155248 0 0 
624 2 4.5 7.5 37.5 -0.118575 0 0 
626 2 7.5 7.5 37.5 -0.112994 0 0 
628 2 10.5 7.5 37.5 -0.132751 0 0 
630 2 13.5 7.5 37.5 -0.166394 0 0 
632 2 1.5 10.5 37.5 -0.201403 0 0 
634 2 4.5 10.5 37.5 -0.143929 0 0 
636 2 7.5 10.5 37.5 -0.132751 0 0 
638 2 10.5 10.5 37.5 -0.167667 0 0 
640 2 13.5 10.5 37.5 -0.219718 0 0 
642 2 1.5 13.5 37.5 -0.274488 0 0 
644 2 4.5 13.5 37.5 -0.182403 0 0 
646 2 7.5 13.5 37.5 -0.166394 0 0 
648 2 10.5 13.5 37.5 -0.219718 0 0 
650 2 13.5 13.5 37.5 -0.30294 0 0 
651 1 0 0 39 0.302565 0 0 
653 1 3 0 39 0.218288 0 0 
655 1 6 0 39 0.166405 0 0 
657 1 9 0 39 0.180998 0 0 
659 1 12 0 39 0.273837 0 0 
661 1 0 3 39 0.218288 0 0 
663 1 3 3 39 0.168254 0 0 
665 1 6 3 39 0.130671 0 0 
667 1 9 3 39 0.144165 0 0 
669 1 12 3 39 0.200289 0 0 
671 1 0 6 39 0.166405 0 0 
673 1 3 6 39 0.130671 0 0 
675 1 6 6 39 0.113693 0 0 
677 1 9 6 39 0.116722 0 0 
679 1 12 6 39 0.154763 0 0 
681 1 0 9 39 0.180998 0 0 
683 1 3 9 39 0.144165 0 0 
685 1 6 9 39 0.116722 0 0 
687 1 9 9 39 0.126704 0 0 
689 1 12 9 39 0.168402 0 0 
691 1 0 12 39 0.273837 0 0 
693 1 3 12 39 0.200289 0 0 
695 1 6 12 39 0.154763 0 0 
697 1 9 12 39 0.168402 0 0 
699 1 12 12 39 0.249114 0 0 
652 2 1.5 1.5 40.5 -0.250186 0 0 
654 2 4.5 1.5 40.5 -0.169574 0 0 
656 2 7.5 1.5 40.5 -0.154833 0 0 
658 2 10.5 1.5 40.5 -0.202061 0 0 
660 2 13.5 1.5 40.5 -0.273882 0 0 
662 2 1.5 4.5 40.5 -0.169574 0 0 
664 2 4.5 4.5 40.5 -0.126416 0 0 
666 2 7.5 4.5 40.5 -0.119101 0 0 
668 2 10.5 4.5 40.5 -0.143381 0 0 
670 2 13.5 4.5 40.5 -0.182798 0 0 
672 2 1.5 7.5 40.5 -0.154833 0 0 
674 2 4.5 7.5 40.5 -0.119101 0 0 
676 2 7.5 7.5 40.5 -0.11264 0 0 
678 2 10.5 7.5 40.5 -0.132802 0 0 
680 2 13.5 7.5 40.5 -0.16654 0 0 
682 2 1.5 10.5 40.5 -0.202061 0 0 
684 2 4.5 10.5 40.5 -0.143381 0 0 
686 2 7.5 10.5 40.5 -0.132802 0 0 
688 2 10.5 10.5 40.5 -0.168173 0 0 
690 2 13.5 10.5 40.5 -0.219021 0 0 
692 2 1.5 13.5 40.5 -0.273882 0 0 
694 2 4.5 13.5 40.5 -0.182798 0 0 
696 2 7.5 13.5 40.5 -0.16654 0 0 
698 2 10.5 13.5 40.5 -0.219021 0 0 
700 2 13.5 13.5 40.5 -0.303781 0 0 
701 1 0 0 42 0.301827 0 0 
703 1 3 0 42 0.219613 0 0 
705 1 6 0 42 0.164874 0 0 
707 1 9 0 42 0.182181 0 0 
709 1 12 0 42 0.273412 0 0 
711 1 0 3 42 0.219614 0 0 
713 1 3 3 42 0.166048 0 0 
715 1 6 3 42 0.133006 0 0 
717 1 9 3 42 0.142515 0 0 
719 1 12 3 42 0.200764 0 0 
721 1 0 6 42 0.164874 0 0 
723 1 3 6 42 0.133006 0 0 
725 1 6 6 42 0.111393 0 0 
727 1 9 6 42 0.118194 0 0 
729 1 12 6 42 0.154493 0 0 
731 1 0 9 42 0.182181 0 0 
733 1 3 9 42 0.142515 0 0 
735 1 6 9 42 0.118194 0 0 
737 1 9 9 42 0.125901 0 0 
739 1 12 9 42 0.1684 0 0 
741 1 0 12 42 0.273412 0 0 
743 1 3 12 42 0.200764 0 0 
745 1 6 12 42 0.154492 0 0 
747 1 9 12 42 0.1684 0 0 
749 1 12 12 42 0.249288 0 0 
702 2 1.5 1.5 43.5 -0.24992 0 0 
704 2 4.5 1.5 43.5 -0.16927 0 0 
706 2 7.5 1.5 43.5 -0.155722 0 0 
708 2 10.5 1.5 43.5 -0.20085 0 0 
710 2 13.5 1.5 43.5 -0.274953 0 0 
712 2 1.5 4.5 43.5 -0.16927 0 0 
714 2 4.5 4.5 43.5 -0.127065 0 0 
716 2 7.5 4.5 43.5 -0.118374 0 0 
718 2 10.5 4.5 43.5 -0.143956 0 0 
720 2 13.5 4.5 43.5 -0.182484 0 0 
722 2 1.5 7.5 43.5 -0.155722 0 0 
724 2 4.5 7.5 43.5 -0.118374 0 0 
726 2 7.5 7.5 43.5 -0.1127 0 0 
728 2 10.5 7.5 43.5 -0.133452 0 0 
730 2 13.5 7.5 43.5 -0.165643 0 0 
732 2 1.5 10.5 43.5 -0.20085 0 0 
734 2 4.5 10.5 43.5 -0.143956 0 0 
736 2 7.5 10.5 43.5 -0.133452 0 0 
738 2 10.5 10.5 43.5 -0.166458 0 0 
740 2 13.5 10.5 43.5 -0.220898 0 0 
742 2 1.5 13.5 43.5 -0.274953 0 0 
744 2 4.5 13.5 43.5 -0.182485 0 0 
746 2 7.5 13.5 43.5 -0.165643 0 0 
748 2 10.5 13.5 43.5 -0.220898 0 0 
750 2 13.5 13.5 43.5 -0.301799 0 0 
751 1 0 0 45 0.302317 0 0 
753 1 3 0 45 0.218953 0 0 
755 1 6 0 45 0.165441 0 0 
757 1 9 0 45 0.181911 0 0 
759 1 12 0 45 0.273354 0 0 
761 1 0 3 45 0.218953 0 0 
763 1 3 3 45 0.166687 0 0 
765 1 6 3 45 0.132738 0 0 
767 1 9 3 45 0.142319 0 0 
769 1 12 3 45 0.201208 0 0 
771 1 0 6 45 0.165441 0 0 
773 1 3 6 45 0.132738 0 0 
775 1 6 6 45 0.111074 0 0 
777 1 9 6 45 0.118981 0 0 
779 1 12 6 45 0.153705 0 0 
781 1 0 9 45 0.181911 0 0 
783 1 3 9 45 0.142319 0 0 
785 1 6 9 45 0.118981 0 0 
787 1 9 9 45 0.124805 0 0 
789 1 12 9 45 0.169252 0 0 
791 1 0 12 45 0.273354 0 0 
793 1 3 12 45 0.201208 0 0 
795 1 6 12 45 0.153705 0 0 
797 1 9 12 45 0.169252 0 0 
799 1 12 12 45 0.24875 0 0 
752 2 1.5 1.5 46.5 -0.249952 0 0 
754 2 4.5 1.5 46.5 -0.169808 0 0 
756 2 7.5 1.5 46.5 -0.154743 0 0 
758 2 10.5 1.5 46.5 -0.201963 0 0 
760 2 13.5 1.5 46.5 -0.274073 0 0 
762 2 1.5 4.5 46.5 -0.169808 0 0 
764 2 4.5 4.5 46.5 -0.126281 0 0 
766 2 7.5 4.5 46.5 -0.119016 0 0 
768 2 10.5 4.5 46.5 -0.143665 0 0 
770 2 13.5 4.5 46.5 -0.182474 0 0 
772 2 1.5 7.5 46.5 -0.154743 0 0 
774 2 4.5 7.5 46.5 -0.119016 0 0 
776 2 7.5 7.5 46.5 -0.112918 0 0 
778 2 10.5 7.5 46.5 -0.132424 0 0 
780 2 13.5 7.5 46.5 -0.166855 0 0 
782 2 1.5 10.5 46.5 -0.201963 0 0 
784 2 4.5 10.5 46.5 -0.143665 0 0 
786 2 7.5 10.5 46.5 -0.132424 0 0 
788 2 10.5 10.5 46.5 -0.168501 0 0 
790 2 13.5 10.5 46.5 -0.218845 0 0 
792 2 1.5 13.5 46.5 -0.274073 0 0 
794 2 4.5 13.5 46.5 -0.182474 0 0 
796 2 7.5 13.5 46.5 -0.166855 0 0 
798 2 10.5 13.5 46.5 -0.218845 0 0 
800 2 13.5 13.5 46.5 -0.303794 0 0 
801 1 0 0 48 0.302261 0 0 
803 1 3 0 48 0.218735 0 0 
805 1 6 0 48 0.16599 0 0 
807 1 9 0 48 0.181233 0 0 
809 1 12 0 48 0.273823 0 0 
811 1 0 3 48 0.218735 0 0 
813 1 3 3 48 0.167782 0 0 
815 1 6 3 48 0.130913 0 0 
817 1 9 3 48 0.144238 0 0 
819 1 12 3 48 0.200027 0 0 
821 1 0 6 48 0.16599 0 0 
823 1 3 6 48 0.130913 0 0 
825 1 6 6 48 0.113846 0 0 
827 1 9 6 48 0.116229 0 0 
829 1 12 6 48 0.155285 0 0 
831 1 0 9 48 0.181233 0 0 
833 1 3 9 48 0.144238 0 0 
835 1 6 9 48 0.116229 0 0 
837 1 9 9 48 0.127439 0 0 
839 1 12 9 48 0.167805 0 0 
841 1 0 12 48 0.273823 0 0 
843 1 3 12 48 0.200027 0 0 
845 1 6 12 48 0.155285 0 0 
847 1 9 12 48 0.167805 0 0 
849 1 12 12 48 0.249513 0 0 
802 2 1.5 1.5 49.5 -0.250364 0 0 
804 2 4.5 1.5 49.5 -0.169099 0 0 
806 2 7.5 1.5 49.5 -0.155437 0 0 
808 2 10.5 1.5 49.5 -0.201522 0 0 
810 2 13.5 1.5 49.5 -0.274195 0 0 
812 2 1.5 4.5 49.5 -0.169099 0 0 
814 2 4.5 4.5 49.5 -0.127054 0 0 
816 2 7.5 4.5 49.5 -0.118619 0 0 
818 2 10.5 4.5 49.5 -0.143545 0 0 
820 2 13.5 4.5 49.5 -0.182889 0 0 
822 2 1.5 7.5 49.5 -0.155438 0 0 
824 2 4.5 7.5 49.5 -0.118619 0 0 
826 2 7.5 7.5 49.5 -0.11265 0 0 
828 2 10.5 7.5 49.5 -0.133274 0 0 
830 2 13.5 7.5 49.5 -0.165927 0 0 
832 2 1.5 10.5 49.5 -0.201522 0 0 
834 2 4.5 10.5 49.5 -0.143545 0 0 
836 2 7.5 10.5 49.5 -0.133274 0 0 
838 2 10.5 10.5 49.5 -0.167203 0 0 
840 2 13.5 10.5 49.5 -0.219973 0 0 
842 2 1.5 13.5 49.5 -0.274195 0 0 
844 2 4.5 13.5 49.5 -0.182889 0 0 
846 2 7.5 13.5 49.5 -0.165927 0 0 
848 2 10.5 13.5 49.5 -0.219973 0 0 
850 2 13.5 13.5 49.5 -0.302916 0 0 
851 1 0 0 51 0.302068 0 0 
853 1 3 0 51 0.219352 0 0 
855 1 6 0 51 0.164986 0 0 
857 1 9 0 51 0.182251 0 0 
859 1 12 0 51 0.273246 0 0 
861 1 0 3 51 0.219352 0 0 
863 1 3 3 51 0.166058 0 0 
865 1 6 3 51 0.133388 0 0 
867 1 9 3 51 0.141878 0 0 
869 1 12 3 51 0.201308 0 0 
871 1 0 6 51 0.164986 0 0 
873 1 3 6 51 0.133388 0 0 
875 1 6 6 51 0.110464 0 0 
877 1 9 6 51 0.119343 0 0 
879 1 12 6 51 0.153676 0 0 
881 1 0 9 51 0.182251 0 0 
883 1 3 9 51 0.141878 0 0 
885 1 6 9 51 0.119343 0 0 
887 1 9 9 51 0.124639 0 0 
889 1 12 9 51 0.169212 0 0 
891 1 0 12 51 0.273246 0 0 
893 1 3 12 51 0.201308 0 0 
895 1 6 12 51 0.153676 0 0 
897 1 9 12 51 0.169212 0 0 
899 1 12 12 51 0.248809 0 0 
852 2 1.5 1.5 52.5 -0.249536 0 0 
854 2 4.5 1.5 52.5 -0.169856 0 0 
856 2 7.5 1.5 52.5 -0.155187 0 0 
858 2 10.5 1.5 52.5 -0.201147 0 0 
860 2 13.5 1.5 52.5 -0.274918 0 0 
862 2 1.5 4.5 52.5 -0.169856 0 0 
864 2 4.5 4.5 52.5 -0.126393 0 0 
866 2 7.5 4.5 52.5 -0.118766 0 0 
868 2 10.5 4.5 52.5 -0.143983 0 0 
870 2 13.5 4.5 52.5 -0.182191 0 0 
872 2 1.5 7.5 52.5 -0.155187 0 0 
874 2 4.5 7.5 52.5 -0.118766 0 0 
876 2 7.5 7.5 52.5 -0.112756 0 0 
878 2 10.5 7.5 52.5 -0.132964 0 0 
880 2 13.5 7.5 52.5 -0.166233 0 0 
882 2 1.5 10.5 52.5 -0.201147 0 0 
884 2 4.5 10.5 52.5 -0.143983 0 0 
886 2 7.5 10.5 52.5 -0.132964 0 0 
888 2 10.5 10.5 52.5 -0.167243 0 0 
890 2 13.5 10.5 52.5 -0.220211 0 0 
892 2 1.5 13.5 52.5 -0.274918 0 0 
894 2 4.5 13.5 52.5 -0.18219 0 0 
896 2 7.5 13.5 52.5 -0.166233 0 0 
898 2 10.5 13.5 52.5 -0.220211 0 0 
900 2 13.5 13.5 52.5 -0.302285 0 0 
901 1 0 0 54 0.302113 0 0 
903 1 3 0 54 0.219106 0 0 
905 1 6 0 54 0.165479 0 0 
907 1 9 0 54 0.181705 0 0 
909 1 12 0 54 0.273573 0 0 
911 1 0 3 54 0.219106 0 0 
913 1 3 3 54 0.166846 0 0 
915 1 6 3 54 0.132168 0 0 
917 1 9 3 54 0.143094 0 0 
919 1 12 3 54 0.200622 0 0 
921 1 0 6 54 0.165478 0 0 
923 1 3 6 54 0.132168 0 0 
925 1 6 6 54 0.112162 0 0 
927 1 9 6 54 0.117759 0 0 
929 1 12 6 54 0.154502 0 0 
931 1 0 9 54 0.181705 0 0 
933 1 3 9 54 0.143094 0 0 
935 1 6 9 54 0.117759 0 0 
937 1 9 9 54 0.126057 0 0 
939 1 12 9 54 0.168505 0 0 
941 1 0 12 54 0.273573 0 0 
943 1 3 12 54 0.200622 0 0 
945 1 6 12 54 0.154502 0 0 
947 1 9 12 54 0.168505 0 0 
949 1 12 12 54 0.249158 0 0 
902 2 1.5 1.5 55.5 -0.250473 0 0 
904 2 4.5 1.5 55.5 -0.169212 0 0 
906 2 7.5 1.5 55.5 -0.155104 0 0 
908 2 10.5 1.5 55.5 -0.201969 0 0 
910 2 13.5 1.5 55.5 -0.273794 0 0 
912 2 1.5 4.5 55.5 -0.169212 0 0 
914 2 4.5 4.5 55.5 -0.126876 0 0 
916 2 7.5 4.5 55.5 -0.118773 0 0 
918 2 10.5 4.5 55.5 -0.143466 0 0 
920 2 13.5 4.5 55.5 -0.182907 0 0 
922 2 1.5 7.5 55.5 -0.155104 0 0 
924 2 4.5 7.5 55.5 -0.118773 0 0 
926 2 7.5 7.5 55.5 -0.112837 0 0 
928 2 10.5 7.5 55.5 -0.132802 0 0 
930 2 13.5 7.5 55.5 -0.16643 0 0 
932 2 1.5 10.5 55.5 -0.201969 0 0 
934 2 4.5 10.5 55.5 -0.143466 0 0 
936 2 7.5 10.5 55.5 -0.132802 0 0 
938 2 10.5 10.5 55.5 -0.168086 0 0 
940 2 13.5 10.5 55.5 -0.219095 0 0 
942 2 1.5 13.5 55.5 -0.273794 0 0 
944 2 4.5 13.5 55.5 -0.182907 0 0 
946 2 7.5 13.5 55.5 -0.16643 0 0 
948 2 10.5 13.5 55.5 -0.219095 0 0 
950 2 13.5 13.5 55.5 -0.303802 0 0 
951 1 0 0 57 0.302487 0 0 
953 1 3 0 57 0.218501 0 0 
955 1 6 0 57 0.166065 0 0 
957 1 9 0 57 0.181322 0 0 
959 1 12 0 57 0.273675 0 0 
961 1 0 3 57 0.218501 0 0 
963 1 3 3 57 0.167893 0 0 
965 1 6 3 57 0.131089 0 0 
967 1 9 3 57 0.143847 0 0 
969 1 12 3 57 0.200388 0 0 
971 1 0 6 57 0.166065 0 0 
973 1 3 6 57 0.131089 0 0 
975 1 6 6 57 0.113348 0 0 
977 1 9 6 57 0.116874 0 0 
979 1 12 6 57 0.154819 0 0 
981 1 0 9 57 0.181322 0 0 
983 1 3 9 57 0.143847 0 0 
985 1 6 9 57 0.116875 0 0 
987 1 9 9 57 0.126752 0 0 
989 1 12 9 57 0.168229 0 0 